ITEM: TIMESTEP
1000
ITEM: NUMBER OF ATOMS
424
ITEM: BOX BOUNDS pp pp ff
-1.6160100000000000e+01 1.6160100000000000e+01
-1.6160100000000000e+01 1.6160100000000000e+01
-3.1645599999999998e+00 3.1645599999999998e+00
ITEM: ATOMS id type q x y z 
1 1 10.8766 -14.9505 -15.1367 -2.54692 
6 1 10.8766 -14.9852 -14.3279 -1.53787 
8 1 10.8766 -15.5067 -14.9128 2.17208 
10 1 10.8766 -15.7563 -13.0538 -0.888174 
11 1 10.8766 -15.7324 -12.5098 0.862955 
12 1 10.8766 -14.5654 -12.4009 2.03084 
97 1 10.8766 -13.9287 -15.2828 -2.61764 
99 1 10.8766 -14.7727 -15.464 -0.515811 
100 1 10.8766 -13.1208 -14.8155 2.63116 
101 1 10.8766 -14.0373 -13.762 -2.63072 
102 1 10.8766 -12.8254 -13.8619 -1.02189 
103 1 10.8766 -12.6495 -15.2033 0.550253 
104 1 10.8766 -14.417 -14.8799 2.09353 
105 1 10.8766 -13.6912 -12.6716 -2.47736 
106 1 10.8766 -13.8113 -12.824 -0.802221 
107 1 10.8766 -12.7837 -12.3342 1.19276 
108 1 10.8766 -13.0258 -12.0257 2.09105 
193 1 10.8766 -12.2776 -15.9865 -2.45951 
195 1 10.8766 -12.1688 -16.066 -0.142484 
197 1 10.8766 -12.9417 -14.9413 -2.27982 
198 1 10.8766 -13.9274 -14.56 -1.87385 
199 1 10.8766 -11.5767 -14.8426 0.660178 
200 1 10.8766 -13.7044 -14.3576 1.43353 
201 1 10.8766 -12.7536 -13.8081 -2.55074 
203 1 10.8766 -13.8922 -13.9234 0.00824015 
204 1 10.8766 -11.7343 -12.4517 1.45184 
292 2 -10.8766 -12.6197 -15.7666 2.01906 
293 2 -10.8766 -11.8386 -14.3535 -2.10665 
294 2 -10.8766 -13.1693 -15.2532 -1.07286 
296 2 -10.8766 -12.0114 -14.5443 1.88786 
297 2 -10.8766 -12.6356 -12.4852 -2.05554 
298 2 -10.8766 -11.5823 -14.3924 -0.325752 
299 2 -10.8766 -12.9203 -13.9098 0.666876 
300 2 -10.8766 -12.5377 -13.0595 2.37729 
16 1 10.8766 -16.0861 -12.4865 2.20269 
109 1 10.8766 -14.7007 -11.6469 -2.32971 
110 1 10.8766 -14.798 -11.7846 -0.336816 
303 2 -10.8766 -11.9146 -11.905 0.353124 
202 1 10.8766 -11.5076 -13.5534 -1.13495 
289 2 -10.8766 -10.823 -15.7585 -2.32364 
290 2 -10.8766 -11.1844 -15.6869 -0.789987 
291 2 -10.8766 -11.3017 -16.0045 0.99536 
295 2 -10.8766 -10.5012 -14.3947 0.749895 
387 2 -10.8766 -9.8576 -16.1042 1.15113 
389 2 -10.8766 -9.82133 -14.5486 -2.39461 
390 2 -10.8766 -9.30751 -15.0803 -0.63506 
391 2 -10.8766 -8.87562 -14.1369 1.35667 
392 2 -10.8766 -10.7315 -14.4476 2.30082 
393 2 -10.8766 -10.8833 -13.0886 -2.12791 
394 2 -10.8766 -9.2115 -13.3581 -1.02192 
395 2 -10.8766 -11.5392 -13.4838 0.676313 
396 2 -10.8766 -9.80861 -12.9915 2.35797 
301 2 -10.8766 -11.4678 -11.7765 -2.36336 
302 2 -10.8766 -11.2302 -12.3482 -0.855349 
304 2 -10.8766 -11.1494 -11.5504 2.47104 
397 2 -10.8766 -9.61645 -12.6137 -2.46217 
398 2 -10.8766 -9.74173 -11.9364 -0.803086 
399 2 -10.8766 -10.6433 -12.3485 0.930958 
400 2 -10.8766 -8.54274 -11.6932 2.29069 
2 1 10.8766 15.7081 -15.5098 -1.8559 
4 1 10.8766 15.4007 -15.7492 2.31139 
5 1 10.8766 15.7152 -13.8832 -2.33619 
7 1 10.8766 15.8772 -13.9486 0.957315 
9 1 10.8766 15.2436 -11.9749 -2.64866 
14 1 10.8766 15.2836 -11.6045 -0.519002 
13 1 10.8766 -15.3991 -10.4282 -2.47373 
15 1 10.8766 -15.7645 -10.7601 0.948074 
19 1 10.8766 -14.1228 -10.5942 -0.394192 
20 1 10.8766 -15.6806 -10.1665 2.20251 
22 1 10.8766 -15.7522 -8.89896 -0.600503 
23 1 10.8766 -15.4627 -8.72168 0.406556 
24 1 10.8766 -15.0137 -8.92259 2.24442 
27 1 10.8766 -15.5172 -7.47118 1.60217 
28 1 10.8766 -15.8745 -7.72805 2.46847 
111 1 10.8766 -13.4568 -10.7737 1.33815 
112 1 10.8766 -13.1246 -10.9307 2.50842 
113 1 10.8766 -13.6627 -10.8733 -2.54187 
114 1 10.8766 -12.4389 -10.2843 -1.61356 
115 1 10.8766 -12.5423 -10.4748 0.299247 
116 1 10.8766 -14.6553 -10.0261 2.64014 
117 1 10.8766 -15.1745 -8.48209 -2.58511 
118 1 10.8766 -15.0701 -8.57024 -1.56812 
119 1 10.8766 -14.4278 -8.52012 0.47281 
120 1 10.8766 -14.3045 -8.26089 1.64619 
122 1 10.8766 -15.7742 -7.41777 -0.173741 
123 1 10.8766 -14.2727 -7.33513 0.263915 
124 1 10.8766 -14.5825 -7.56829 2.61412 
205 1 10.8766 -12.3994 -11.2492 -1.9803 
206 1 10.8766 -11.9998 -11.4365 -0.824629 
207 1 10.8766 -13.4724 -11.3494 -0.0294723 
208 1 10.8766 -12.0882 -11.0181 1.29387 
209 1 10.8766 -11.6844 -10.5522 -2.54232 
212 1 10.8766 -12.6618 -9.84274 1.11257 
213 2 -10.8766 -14.4867 -9.55002 -2.43432 
214 2 -10.8766 -14.4828 -9.1374 -0.548722 
215 2 -10.8766 -14.3508 -9.51235 1.19926 
216 2 -10.8766 -13.9344 -9.11512 2.49819 
217 2 -10.8766 -14.1099 -8.09396 -2.21298 
218 2 -10.8766 -14.766 -7.52274 -0.862818 
219 2 -10.8766 -13.416 -7.93364 0.907712 
220 2 -10.8766 -13.5477 -7.523 2.21698 
308 2 -10.8766 -11.9333 -10.165 2.32948 
309 2 -10.8766 -13.0741 -9.25262 -2.4283 
310 2 -10.8766 -12.934 -9.39956 -0.816945 
311 2 -10.8766 -12.1347 -8.61349 0.549171 
312 2 -10.8766 -12.5242 -8.88637 2.24128 
313 2 -10.8766 -12.1642 -7.47614 -2.44956 
314 2 -10.8766 -13.0905 -8.09579 -0.875436 
316 2 -10.8766 -11.8283 -7.42172 2.04176 
210 1 10.8766 -10.7494 -10.1309 -1.22308 
211 1 10.8766 -11.506 -10.0923 0.403418 
305 2 -10.8766 -10.3979 -9.86832 -2.44015 
306 2 -10.8766 -10.9926 -10.972 -0.276998 
307 2 -10.8766 -10.9 -10.8202 1.28455 
315 2 -10.8766 -10.7388 -7.97364 0.939775 
401 2 -10.8766 -8.69608 -10.8311 -2.45567 
402 2 -10.8766 -8.18571 -10.7165 -0.306399 
403 2 -10.8766 -8.07133 -10.3722 1.53925 
404 2 -10.8766 -10.2767 -9.65078 2.45613 
405 2 -10.8766 -8.9867 -8.89689 -2.4215 
406 2 -10.8766 -9.5487 -8.98863 -0.604261 
407 2 -10.8766 -10.0476 -9.16858 0.6941 
408 2 -10.8766 -7.6259 -8.64758 2.18608 
409 2 -10.8766 -11.0495 -8.20379 -2.29442 
410 2 -10.8766 -8.28893 -7.11095 -1.27442 
411 2 -10.8766 -7.51876 -7.3941 1.10616 
412 2 -10.8766 -9.62939 -7.36929 2.36514 
17 1 10.8766 15.604 -9.6629 -2.47928 
18 1 10.8766 15.0907 -9.65281 -1.19029 
21 1 10.8766 16.0262 -8.52611 -2.54617 
26 1 10.8766 16.0807 -7.74496 -1.74712 
25 1 10.8766 -15.3496 -6.92026 -2.531 
121 1 10.8766 -14.3382 -6.91999 -1.99965 
29 1 10.8766 -15.6182 -5.6282 -2.64689 
30 1 10.8766 -15.4433 -6.82252 -1.51577 
33 1 10.8766 -14.7846 -4.45773 -2.54364 
35 1 10.8766 -14.3087 -4.10748 0.0998416 
36 1 10.8766 -15.7454 -4.53994 1.33479 
40 1 10.8766 -15.2704 -3.39488 1.73482 
125 1 10.8766 -14.3544 -5.92592 -2.5621 
126 1 10.8766 -14.2816 -6.08586 -0.548474 
127 1 10.8766 -14.8503 -4.99036 -0.12142 
128 1 10.8766 -14.9178 -6.03817 1.27366 
129 1 10.8766 -14.4517 -5.08864 -1.27743 
130 1 10.8766 -13.2979 -5.7584 -1.40593 
131 1 10.8766 -13.4434 -4.77287 0.467801 
132 1 10.8766 -14.0034 -5.21944 1.22568 
133 1 10.8766 -14.4928 -3.05681 -2.66803 
134 1 10.8766 -14.1417 -4.01373 -1.86357 
135 1 10.8766 -14.9537 -3.16456 -0.276265 
136 1 10.8766 -14.0792 -3.32416 2.60713 
221 2 -10.8766 -13.2529 -6.38711 -2.42367 
222 2 -10.8766 -13.3635 -6.78392 -0.804475 
223 2 -10.8766 -13.8085 -6.347 0.797069 
224 2 -10.8766 -15.4437 -5.69298 2.46862 
225 2 -10.8766 -13.5905 -4.9372 -2.32121 
226 2 -10.8766 -12.7091 -4.88783 -0.856686 
227 2 -10.8766 -12.702 -5.40116 1.20087 
228 2 -10.8766 -14.1335 -4.88276 2.39656 
229 2 -10.8766 -13.1734 -3.34747 -2.29922 
230 2 -10.8766 -13.6714 -3.61351 -0.814736 
231 2 -10.8766 -14.5254 -4.13625 1.35375 
232 2 -10.8766 -13.2261 -3.46645 1.93036 
318 2 -10.8766 -12.1466 -6.18634 -0.697148 
319 2 -10.8766 -12.0465 -6.53373 0.842754 
320 2 -10.8766 -13.6376 -6.2073 2.15488 
321 2 -10.8766 -12.1526 -5.09442 -2.4421 
324 2 -10.8766 -12.354 -4.78606 2.30762 
325 2 -10.8766 -11.6146 -3.58305 -2.38505 
326 2 -10.8766 -12.4755 -2.45405 -0.722523 
327 2 -10.8766 -12.089 -3.98291 0.951931 
138 1 10.8766 -14.7968 -3.03128 -1.56571 
139 1 10.8766 -12.4223 -3.03832 0.409753 
140 1 10.8766 -13.9846 -3.05363 0.595207 
317 2 -10.8766 -10.8454 -5.98764 -2.39275 
322 2 -10.8766 -11.4825 -4.4343 -0.759955 
323 2 -10.8766 -10.503 -4.91491 0.713247 
328 2 -10.8766 -11.1179 -3.54722 2.22515 
413 2 -10.8766 -8.11336 -6.32291 -2.4253 
414 2 -10.8766 -9.63288 -5.20058 -0.655762 
415 2 -10.8766 -9.18223 -6.26092 1.04259 
416 2 -10.8766 -10.7298 -5.27857 2.46576 
417 2 -10.8766 -8.83476 -4.33805 -2.45214 
418 2 -10.8766 -7.49938 -3.9165 -0.470037 
419 2 -10.8766 -7.10018 -4.57418 1.57439 
420 2 -10.8766 -8.83636 -3.71135 2.3147 
421 2 -10.8766 -8.22153 -2.50965 -2.44481 
422 2 -10.8766 -8.53509 -2.45886 -0.651446 
423 2 -10.8766 -8.54754 -3.20563 0.796894 
331 2 -10.8766 -10.8057 -2.77003 0.664722 
31 1 10.8766 16.0996 -6.87663 0.860152 
32 1 10.8766 15.3669 -6.15222 2.17649 
34 1 10.8766 16.1435 -5.46426 -1.49383 
37 1 10.8766 15.7678 -3.90477 -2.55959 
38 1 10.8766 15.6979 -3.28593 -0.940451 
39 1 10.8766 15.2346 -3.916 0.430876 
41 1 10.8766 15.9212 -2.36723 -2.62723 
42 1 10.8766 -14.9363 -1.58565 -0.993894 
44 1 10.8766 -15.8124 -1.01716 2.26383 
45 1 10.8766 -15.5667 -0.921738 -2.51779 
46 1 10.8766 -14.4526 -0.879989 -1.60748 
47 1 10.8766 -15.2758 -0.951371 -0.119224 
48 1 10.8766 -14.7992 -0.599813 2.55092 
49 1 10.8766 -15.0157 0.323185 -2.58186 
50 1 10.8766 -15.005 0.641624 -0.709138 
51 1 10.8766 -15.5999 0.549856 0.68647 
52 1 10.8766 -14.7938 0.725053 1.9365 
54 1 10.8766 -15.1909 1.60316 -1.36058 
55 1 10.8766 -14.6278 2.10964 0.0710648 
137 1 10.8766 -15.3467 -2.20226 -2.36969 
141 1 10.8766 -14.0893 -0.797292 -2.64054 
142 1 10.8766 -12.2454 -0.952545 0.157738 
143 1 10.8766 -14.3149 -0.388957 0.858776 
144 1 10.8766 -14.4025 -1.12925 1.69386 
145 1 10.8766 -13.8275 0.208837 -2.19212 
146 1 10.8766 -13.13 -0.271222 -0.888776 
147 1 10.8766 -13.6199 0.603096 0.962708 
148 1 10.8766 -13.3976 0.309667 1.96329 
150 1 10.8766 -13.5372 0.749831 -1.27893 
151 1 10.8766 -13.2703 1.90457 -0.0309102 
152 1 10.8766 -13.8748 1.55128 2.49244 
233 2 -10.8766 -13.8591 -1.98402 -2.15571 
234 2 -10.8766 -14.071 -2.26501 -0.404019 
235 2 -10.8766 -11.9806 -1.7619 0.88148 
236 2 -10.8766 -14.704 -2.24805 2.30958 
237 2 -10.8766 -12.9712 -0.738892 -2.30742 
238 2 -10.8766 -12.0104 -0.685498 -1.2567 
239 2 -10.8766 -13.8256 -1.55824 0.748944 
240 2 -10.8766 -13.5562 -0.762957 2.44985 
241 2 -10.8766 -12.6963 0.632359 -2.20087 
242 2 -10.8766 -13.916 0.224728 -0.126385 
243 2 -10.8766 -12.925 -0.339425 1.02369 
244 2 -10.8766 -12.5616 0.805242 2.4692 
245 2 -10.8766 -14.5543 1.32596 -2.26682 
246 2 -10.8766 -13.0204 1.92195 -1.25 
247 2 -10.8766 -12.7406 0.78459 0.238573 
248 2 -10.8766 -14.7369 1.97117 1.21173 
329 2 -10.8766 -11.9469 -2.23354 -2.42208 
332 2 -10.8766 -12.2742 -2.00748 2.29162 
336 2 -10.8766 -12.0546 -0.590602 2.3107 
338 2 -10.8766 -12.0181 0.841404 -0.877687 
424 2 -10.8766 -9.0043 -1.37062 2.00446 
330 2 -10.8766 -10.3603 -1.34376 -1.11126 
333 2 -10.8766 -10.7845 -0.557497 -2.39633 
334 2 -10.8766 -8.44763 0.227215 -1.15841 
335 2 -10.8766 -10.3014 -0.871321 0.599039 
337 2 -10.8766 -10.4832 1.31585 -2.41053 
339 2 -10.8766 -11.3758 0.112712 0.598096 
340 2 -10.8766 -10.3637 1.06442 2.42027 
343 2 -10.8766 -11.1485 1.63219 0.2326 
344 2 -10.8766 -9.14905 2.08197 2.37008 
43 1 10.8766 16.0033 -1.84532 0.818687 
53 1 10.8766 15.6145 1.06354 -2.46124 
56 1 10.8766 15.9105 1.75373 1.62471 
58 1 10.8766 15.5248 2.06561 -1.05593 
149 1 10.8766 -14.4463 2.81339 -2.62626 
341 2 -10.8766 -12.1717 2.52814 -2.43128 
59 1 10.8766 -15.2036 3.01539 1.14706 
60 1 10.8766 -16.0708 3.31935 2.62371 
61 1 10.8766 -15.5844 4.3192 -2.51996 
63 1 10.8766 -15.4943 3.76957 0.367176 
64 1 10.8766 -15.557 4.8457 2.30132 
68 1 10.8766 -15.0142 5.40942 1.07251 
153 1 10.8766 -14.3658 3.51594 -1.59806 
154 1 10.8766 -15.5765 2.93028 -0.577016 
155 1 10.8766 -13.4327 3.34783 -0.187517 
156 1 10.8766 -14.0047 3.28437 0.963979 
157 1 10.8766 -14.5022 4.12177 -2.59341 
158 1 10.8766 -12.7502 4.30074 -0.78567 
159 1 10.8766 -14.5621 4.11862 -0.254186 
160 1 10.8766 -13.9358 4.63759 1.17536 
161 1 10.8766 -14.6243 5.29323 -2.24685 
162 1 10.8766 -15.479 5.3603 -0.538305 
163 1 10.8766 -14.1729 6.09337 0.197004 
164 1 10.8766 -14.611 5.73186 2.60289 
249 2 -10.8766 -13.3635 3.22872 -2.37523 
250 2 -10.8766 -14.4429 2.57055 -0.947254 
251 2 -10.8766 -12.5176 2.31105 0.886328 
252 2 -10.8766 -14.3204 2.64409 2.29802 
253 2 -10.8766 -13.5127 4.85901 -2.43558 
255 2 -10.8766 -12.956 3.61832 1.21001 
256 2 -10.8766 -14.5458 4.37905 2.34214 
257 2 -10.8766 -12.4292 5.77288 -2.18639 
258 2 -10.8766 -14.3503 5.51695 -1.04373 
259 2 -10.8766 -13.6096 4.8789 0.0523426 
260 2 -10.8766 -13.206 5.491 1.65625 
346 2 -10.8766 -12.1133 2.99573 -0.706007 
348 2 -10.8766 -12.1414 2.37114 2.41705 
349 2 -10.8766 -12.2033 4.32082 -2.36864 
352 2 -10.8766 -11.6908 4.08995 2.31326 
354 2 -10.8766 -12.473 5.73548 -0.539371 
356 2 -10.8766 -12.1412 5.45143 2.4834 
70 1 10.8766 -16.011 6.92476 -1.27504 
72 1 10.8766 -14.3599 6.66834 2.29806 
165 1 10.8766 -14.3801 6.30457 -2.62403 
166 1 10.8766 -14.5535 6.75581 -1.46172 
261 2 -10.8766 -13.4636 6.83884 -2.27952 
263 2 -10.8766 -13.0582 6.75282 0.73335 
264 2 -10.8766 -13.1702 6.7444 2.37755 
359 2 -10.8766 -11.8119 6.59496 1.56135 
342 2 -10.8766 -9.32483 2.45434 -1.57672 
254 2 -10.8766 -11.519 4.46478 -0.973711 
345 2 -10.8766 -10.9287 2.97879 -2.42887 
347 2 -10.8766 -10.3291 2.84506 1.97779 
350 2 -10.8766 -9.86584 4.77173 -0.875623 
351 2 -10.8766 -9.62572 4.50832 0.866818 
353 2 -10.8766 -9.57295 5.3017 -2.45261 
355 2 -10.8766 -10.8164 6.0279 0.423851 
360 2 -10.8766 -9.26782 6.70649 1.97321 
57 1 10.8766 16.1249 3.22938 -2.59007 
62 1 10.8766 15.4626 4.39063 -0.209148 
65 1 10.8766 15.6691 5.13045 -2.55241 
66 1 10.8766 15.0282 5.9052 -0.931792 
67 1 10.8766 15.7137 5.89084 1.37683 
69 1 10.8766 15.8234 6.5546 -2.53468 
71 1 10.8766 -15.2222 8.07727 0.983505 
73 1 10.8766 -15.0656 7.21441 -2.56579 
74 1 10.8766 -14.8698 7.78824 -1.42922 
75 1 10.8766 -15.9564 9.26944 0.751436 
78 1 10.8766 -15.778 8.86526 -0.882182 
79 1 10.8766 -15.3016 9.94355 -0.173261 
80 1 10.8766 -15.3507 9.31227 2.37868 
81 1 10.8766 -16.1571 11.5304 -2.62131 
82 1 10.8766 -14.6965 9.72364 -1.49074 
84 1 10.8766 -15.7202 10.5567 2.20765 
167 1 10.8766 -14.3124 7.00012 1.0565 
168 1 10.8766 -14.0034 7.72763 2.31233 
169 1 10.8766 -13.6877 8.38424 -2.52432 
170 1 10.8766 -13.6401 7.82597 -1.49471 
171 1 10.8766 -13.0893 7.89549 0.358345 
172 1 10.8766 -14.2645 8.42405 1.26449 
173 1 10.8766 -14.9071 9.19401 -2.63142 
174 1 10.8766 -13.8471 8.90236 -1.48926 
175 1 10.8766 -14.387 9.15794 0.28309 
176 1 10.8766 -14.6962 10.3949 2.20745 
177 1 10.8766 -14.8888 10.3753 -2.50369 
178 1 10.8766 -13.5006 10.8919 -0.902994 
179 1 10.8766 -15.2535 11.3402 0.229346 
180 1 10.8766 -13.2185 11.0739 1.74825 
262 2 -10.8766 -13.7112 6.99054 -0.542246 
265 2 -10.8766 -12.4716 8.82612 -2.37837 
266 2 -10.8766 -12.9331 8.51726 -0.635628 
267 2 -10.8766 -12.9195 7.79185 1.51336 
268 2 -10.8766 -13.3715 8.66895 2.45057 
269 2 -10.8766 -13.7748 9.84127 -2.40008 
270 2 -10.8766 -13.5255 9.8198 -0.339874 
271 2 -10.8766 -13.2598 9.30069 0.924125 
272 2 -10.8766 -13.2275 9.97531 2.25781 
273 2 -10.8766 -13.8624 11.2626 -2.21656 
274 2 -10.8766 -12.2747 11.2181 -0.22204 
275 2 -10.8766 -14.2389 10.8255 0.685131 
276 2 -10.8766 -12.2019 11.2673 2.35751 
357 2 -10.8766 -11.8297 7.44395 -2.42977 
364 2 -10.8766 -11.6582 8.13571 2.48208 
366 2 -10.8766 -12.0113 9.7165 -0.192744 
367 2 -10.8766 -12.1602 10.2645 1.39499 
369 2 -10.8766 -12.1844 10.4963 -2.43097 
86 1 10.8766 -14.9185 11.3173 -1.69723 
184 1 10.8766 -14.3434 11.2389 2.61917 
358 2 -10.8766 -11.5217 7.42412 -0.268388 
361 2 -10.8766 -10.5982 8.67126 -2.44639 
362 2 -10.8766 -8.41098 8.67576 -0.518685 
363 2 -10.8766 -10.9093 8.97661 0.317418 
365 2 -10.8766 -10.2629 10.3643 -2.40828 
368 2 -10.8766 -10.6035 8.99111 1.80145 
370 2 -10.8766 -8.79739 11.149 -1.48662 
372 2 -10.8766 -10.6425 10.9323 2.26658 
76 1 10.8766 15.8226 8.53022 1.9603 
77 1 10.8766 15.6705 9.38795 -2.49172 
83 1 10.8766 14.9974 10.2988 -0.335781 
3 1 10.8766 -15.5748 16.1314 1.91661 
98 1 10.8766 -12.9103 15.7057 -1.17642 
196 1 10.8766 -12.4898 16.0211 0.866826 
88 1 10.8766 -15.9665 12.4665 2.42412 
89 1 10.8766 -15.0694 13.8309 -2.58935 
91 1 10.8766 -15.4112 14.4987 0.71104 
93 1 10.8766 -15.6848 15.9769 -2.52322 
95 1 10.8766 -15.2843 15.83 0.178357 
181 1 10.8766 -14.5293 12.2512 -2.53601 
182 1 10.8766 -13.4633 12.1033 -0.777033 
183 1 10.8766 -14.8933 13.2885 0.863993 
185 1 10.8766 -13.9232 13.9497 -2.6278 
186 1 10.8766 -14.6259 12.5337 -1.00401 
187 1 10.8766 -13.2434 13.8996 1.03175 
188 1 10.8766 -14.1109 13.19 1.61822 
189 1 10.8766 -14.4316 14.8406 -2.29084 
190 1 10.8766 -14.8534 13.4725 -1.5935 
191 1 10.8766 -13.1989 14.9605 -0.287837 
192 1 10.8766 -14.1589 14.5964 1.63205 
277 2 -10.8766 -13.5497 12.8677 -2.18536 
278 2 -10.8766 -12.3267 12.585 -0.474435 
279 2 -10.8766 -14.2673 12.2735 0.758158 
280 2 -10.8766 -13.4723 12.3724 2.46328 
281 2 -10.8766 -12.7296 14.3519 -2.14103 
282 2 -10.8766 -14.0893 13.5237 -0.479348 
283 2 -10.8766 -12.2391 14.559 1.08639 
284 2 -10.8766 -13.3833 14.1513 2.46569 
285 2 -10.8766 -13.7073 15.8175 -2.24115 
286 2 -10.8766 -14.8436 14.9917 -1.04462 
287 2 -10.8766 -14.0748 16.0066 0.579596 
288 2 -10.8766 -14.4604 15.6753 2.26555 
375 2 -10.8766 -12.0827 12.3904 1.13253 
378 2 -10.8766 -12.6517 13.8033 -0.972504 
380 2 -10.8766 -11.8 13.8433 2.30621 
381 2 -10.8766 -11.6089 15.2627 -2.39457 
382 2 -10.8766 -11.7508 14.8343 -0.138458 
384 2 -10.8766 -11.7977 15.252 2.49677 
194 1 10.8766 -11.5239 15.5743 -1.1848 
385 2 -10.8766 -9.92861 15.456 -2.40361 
386 2 -10.8766 -9.22272 15.3879 -0.908722 
388 2 -10.8766 -8.56004 15.925 2.45989 
371 2 -10.8766 -11.1701 11.5812 0.546802 
373 2 -10.8766 -10.5904 12.0654 -2.42751 
374 2 -10.8766 -10.9925 13.0994 -0.491192 
376 2 -10.8766 -10.879 12.6433 1.99705 
377 2 -10.8766 -9.07058 14.0617 -2.34105 
379 2 -10.8766 -9.69135 13.8409 0.12259 
383 2 -10.8766 -10.6689 14.7927 0.914273 
85 1 10.8766 15.5627 13.2302 -2.65552 
87 1 10.8766 16.0903 11.6834 0.745189 
90 1 10.8766 15.8841 13.5695 -1.30979 
92 1 10.8766 15.5732 12.7356 1.50182 
94 1 10.8766 15.8779 14.9272 -1.41598 
96 1 10.8766 15.9389 14.6449 1.98374 
ITEM: TIMESTEP
1100
ITEM: NUMBER OF ATOMS
424
ITEM: BOX BOUNDS pp pp ff
-1.6160100000000000e+01 1.6160100000000000e+01
-1.6160100000000000e+01 1.6160100000000000e+01
-3.1645599999999998e+00 3.1645599999999998e+00
ITEM: ATOMS id type q x y z 
1 1 10.8766 -15.0042 -15.1673 -2.50878 
6 1 10.8766 -14.9888 -14.2215 -1.63411 
8 1 10.8766 -15.5388 -14.9923 2.10116 
10 1 10.8766 -15.798 -13.0819 -0.878168 
11 1 10.8766 -15.752 -12.5036 0.964429 
12 1 10.8766 -14.4143 -12.3612 1.97479 
97 1 10.8766 -13.8618 -15.229 -2.64431 
99 1 10.8766 -14.7475 -15.5876 -0.398923 
100 1 10.8766 -13.1096 -14.6848 2.36379 
101 1 10.8766 -13.9647 -13.7341 -2.6034 
102 1 10.8766 -12.628 -13.927 -0.856053 
103 1 10.8766 -12.3434 -15.3073 0.652238 
104 1 10.8766 -14.5092 -14.9818 2.11035 
105 1 10.8766 -13.7722 -12.7157 -2.53944 
106 1 10.8766 -13.6187 -12.7943 -0.745402 
107 1 10.8766 -12.7567 -12.5028 1.22578 
108 1 10.8766 -12.9777 -11.8504 2.22374 
193 1 10.8766 -12.0891 -16.0428 -2.39274 
195 1 10.8766 -12.1469 -16.0661 -0.214269 
197 1 10.8766 -12.8372 -15.0381 -2.24419 
198 1 10.8766 -13.9704 -14.4689 -1.88404 
199 1 10.8766 -11.4088 -14.9722 0.744043 
200 1 10.8766 -13.789 -14.5229 1.40658 
201 1 10.8766 -12.7192 -13.741 -2.5173 
203 1 10.8766 -14.1034 -13.9835 -0.0021668 
204 1 10.8766 -11.6693 -12.5877 1.4364 
292 2 -10.8766 -12.8202 -15.8282 1.98001 
293 2 -10.8766 -11.7884 -14.4863 -1.9953 
294 2 -10.8766 -13.4205 -15.4126 -1.07432 
296 2 -10.8766 -12.0744 -14.5504 1.9609 
297 2 -10.8766 -12.5971 -12.3906 -1.85228 
298 2 -10.8766 -11.7865 -14.4958 -0.464927 
299 2 -10.8766 -12.9634 -13.9777 0.729891 
300 2 -10.8766 -12.586 -13.0609 2.26347 
16 1 10.8766 16.1522 -12.5329 2.39661 
109 1 10.8766 -14.7183 -11.6449 -2.3338 
110 1 10.8766 -14.8925 -11.9562 -0.32102 
303 2 -10.8766 -11.9857 -11.9482 0.348152 
202 1 10.8766 -11.2345 -13.5775 -1.14441 
289 2 -10.8766 -10.6927 -15.6619 -2.26773 
290 2 -10.8766 -11.0406 -15.6692 -0.982353 
291 2 -10.8766 -11.3441 -16.1589 0.997942 
295 2 -10.8766 -10.2753 -14.3318 0.709777 
387 2 -10.8766 -9.7347 -16.1638 1.15649 
389 2 -10.8766 -9.85219 -14.5834 -2.36967 
390 2 -10.8766 -9.26111 -15.1801 -0.630364 
391 2 -10.8766 -8.70075 -14.0706 1.41999 
392 2 -10.8766 -10.7973 -14.4557 2.48131 
393 2 -10.8766 -10.858 -13.0393 -2.26291 
394 2 -10.8766 -9.14749 -13.413 -1.0363 
395 2 -10.8766 -11.6689 -13.652 0.615733 
396 2 -10.8766 -9.83696 -13.0225 2.23681 
301 2 -10.8766 -11.4254 -11.8128 -2.4618 
302 2 -10.8766 -11.1487 -12.3665 -0.887332 
304 2 -10.8766 -11.0135 -11.335 2.46648 
397 2 -10.8766 -9.50474 -12.728 -2.43354 
398 2 -10.8766 -9.7503 -12.003 -0.799189 
399 2 -10.8766 -10.5868 -12.6328 0.929036 
400 2 -10.8766 -8.45844 -11.8642 2.27 
2 1 10.8766 15.5537 -15.5623 -1.91526 
4 1 10.8766 15.2551 -15.6525 2.31284 
5 1 10.8766 15.5565 -13.8621 -2.35544 
7 1 10.8766 15.7656 -13.9496 1.0619 
9 1 10.8766 15.0696 -11.9148 -2.59429 
14 1 10.8766 15.0836 -11.5511 -0.474151 
13 1 10.8766 -15.455 -10.4021 -2.46887 
15 1 10.8766 -15.8026 -10.7038 1.02656 
19 1 10.8766 -14.0048 -10.5069 -0.468546 
20 1 10.8766 -15.8219 -10.2523 2.37999 
22 1 10.8766 -15.8898 -8.97486 -0.54933 
23 1 10.8766 -15.4833 -8.70519 0.57562 
24 1 10.8766 -15.1285 -8.8102 2.43722 
27 1 10.8766 -15.4023 -7.28954 1.59912 
28 1 10.8766 -16.0367 -7.79954 2.48704 
111 1 10.8766 -13.209 -10.7975 1.51228 
112 1 10.8766 -13.2716 -10.9529 2.55835 
113 1 10.8766 -13.471 -10.9916 -2.58711 
114 1 10.8766 -12.118 -10.1288 -1.7129 
115 1 10.8766 -12.2612 -10.5107 0.378392 
116 1 10.8766 -14.7227 -10.0809 2.59491 
117 1 10.8766 -15.3249 -8.52058 -2.63327 
118 1 10.8766 -15.1026 -8.58585 -1.52097 
119 1 10.8766 -14.3106 -8.5116 0.458084 
120 1 10.8766 -14.3924 -8.26493 1.63618 
122 1 10.8766 -15.879 -7.38331 -0.113647 
123 1 10.8766 -14.2015 -7.32166 0.293715 
124 1 10.8766 -14.7076 -7.67985 2.55697 
205 1 10.8766 -12.4172 -11.1143 -2.08797 
206 1 10.8766 -11.8736 -11.347 -0.859831 
207 1 10.8766 -13.4524 -11.4487 -0.0549266 
208 1 10.8766 -12.0066 -11.0249 1.26888 
209 1 10.8766 -11.4207 -10.4115 -2.46273 
212 1 10.8766 -12.5857 -9.7853 1.24194 
213 2 -10.8766 -14.6732 -9.56908 -2.45787 
214 2 -10.8766 -14.7549 -9.23567 -0.582571 
215 2 -10.8766 -14.5721 -9.56296 1.27529 
216 2 -10.8766 -13.876 -9.22802 2.43812 
217 2 -10.8766 -14.1997 -8.17854 -2.16955 
218 2 -10.8766 -14.8239 -7.56319 -0.851499 
219 2 -10.8766 -13.3444 -7.96298 0.851642 
220 2 -10.8766 -13.4288 -7.48259 2.2822 
308 2 -10.8766 -11.7432 -9.91747 2.36568 
309 2 -10.8766 -13.2194 -9.39078 -2.39921 
310 2 -10.8766 -13.0879 -9.5673 -0.842878 
311 2 -10.8766 -12.1428 -8.67735 0.556354 
312 2 -10.8766 -12.7129 -8.90354 2.13281 
313 2 -10.8766 -12.2642 -7.5553 -2.43433 
314 2 -10.8766 -13.3254 -8.18809 -1.05983 
316 2 -10.8766 -11.8622 -7.41771 1.96908 
210 1 10.8766 -10.4436 -10.0223 -1.14409 
211 1 10.8766 -11.283 -9.80818 0.441277 
305 2 -10.8766 -10.3163 -9.85708 -2.46117 
306 2 -10.8766 -10.9246 -11.0991 -0.234138 
307 2 -10.8766 -10.7988 -10.8155 1.24479 
315 2 -10.8766 -10.616 -7.99349 1.01317 
401 2 -10.8766 -8.59249 -10.9027 -2.43435 
402 2 -10.8766 -8.00979 -10.7963 -0.266134 
403 2 -10.8766 -7.85544 -10.2958 1.55864 
404 2 -10.8766 -10.2783 -9.61167 2.46677 
405 2 -10.8766 -8.90792 -8.9179 -2.41939 
406 2 -10.8766 -9.54 -9.02518 -0.633673 
407 2 -10.8766 -10.0749 -9.21546 0.640586 
408 2 -10.8766 -7.40972 -8.65931 2.07375 
409 2 -10.8766 -11.0584 -8.43032 -2.32531 
410 2 -10.8766 -8.11992 -7.12878 -1.27178 
411 2 -10.8766 -7.26365 -7.39985 1.19972 
412 2 -10.8766 -9.60271 -7.39815 2.23242 
17 1 10.8766 15.4918 -9.63211 -2.45616 
18 1 10.8766 14.8913 -9.63844 -1.18658 
21 1 10.8766 15.9513 -8.51724 -2.57209 
26 1 10.8766 15.9858 -7.71311 -1.76014 
25 1 10.8766 -15.2474 -6.92786 -2.57294 
121 1 10.8766 -14.2516 -6.89801 -1.91555 
29 1 10.8766 -15.7 -5.51431 -2.59971 
30 1 10.8766 -15.6049 -6.58043 -1.56702 
33 1 10.8766 -14.6705 -4.43232 -2.64822 
35 1 10.8766 -14.0555 -4.08159 0.254231 
36 1 10.8766 -15.8147 -4.49167 1.46449 
40 1 10.8766 -15.4607 -3.36141 1.83024 
125 1 10.8766 -14.4421 -5.90977 -2.64176 
126 1 10.8766 -14.2893 -5.92427 -0.424404 
127 1 10.8766 -14.8022 -4.85281 -0.0382387 
128 1 10.8766 -14.9069 -5.99625 1.26748 
129 1 10.8766 -14.4029 -5.09268 -1.06297 
130 1 10.8766 -13.12 -5.75969 -1.48358 
131 1 10.8766 -13.2174 -4.64224 0.375751 
132 1 10.8766 -13.9542 -5.21917 1.2387 
133 1 10.8766 -14.5055 -3.09171 -2.56305 
134 1 10.8766 -14.0666 -3.92099 -1.89636 
135 1 10.8766 -15.0429 -3.14065 -0.246882 
136 1 10.8766 -14.2163 -3.32268 2.61541 
221 2 -10.8766 -13.2139 -6.48622 -2.44007 
222 2 -10.8766 -13.5424 -6.7886 -0.905289 
223 2 -10.8766 -13.9163 -6.30903 0.761802 
224 2 -10.8766 -15.9388 -5.60525 2.42579 
225 2 -10.8766 -13.676 -5.01629 -2.2847 
226 2 -10.8766 -12.7721 -4.76879 -0.840772 
227 2 -10.8766 -12.8105 -5.48865 1.19245 
228 2 -10.8766 -14.3392 -4.85887 2.52536 
229 2 -10.8766 -13.2088 -3.30355 -2.3257 
230 2 -10.8766 -13.8824 -3.57557 -0.81597 
231 2 -10.8766 -14.6996 -4.30223 1.30417 
232 2 -10.8766 -13.2221 -3.5869 1.73572 
318 2 -10.8766 -12.2397 -6.17829 -0.786894 
319 2 -10.8766 -12.0835 -6.69389 0.838741 
320 2 -10.8766 -13.9567 -6.0651 2.23326 
321 2 -10.8766 -12.2921 -5.11808 -2.39898 
324 2 -10.8766 -12.3904 -4.69624 2.35869 
325 2 -10.8766 -11.6917 -3.64777 -2.39021 
326 2 -10.8766 -12.6577 -2.26939 -0.733898 
327 2 -10.8766 -12.1304 -4.23298 1.01401 
138 1 10.8766 -14.7272 -3.04806 -1.55583 
139 1 10.8766 -12.2379 -2.86139 0.302026 
140 1 10.8766 -13.7731 -3.11078 0.589613 
317 2 -10.8766 -10.8367 -5.98318 -2.4234 
322 2 -10.8766 -11.4282 -4.33709 -0.754161 
323 2 -10.8766 -10.4969 -4.90962 0.745348 
328 2 -10.8766 -11.0676 -3.48952 2.29985 
413 2 -10.8766 -7.91777 -6.31723 -2.44066 
414 2 -10.8766 -9.5922 -5.13634 -0.66599 
415 2 -10.8766 -9.01675 -6.3479 1.02605 
416 2 -10.8766 -10.8545 -5.19307 2.46474 
417 2 -10.8766 -8.73787 -4.28319 -2.43246 
418 2 -10.8766 -7.22626 -3.8431 -0.438174 
419 2 -10.8766 -6.79977 -4.55322 1.72028 
420 2 -10.8766 -8.73156 -3.68643 2.44594 
421 2 -10.8766 -8.04907 -2.39484 -2.4454 
422 2 -10.8766 -8.35618 -2.36016 -0.63155 
423 2 -10.8766 -8.33972 -3.11849 0.701678 
331 2 -10.8766 -10.8224 -2.79964 0.685018 
31 1 10.8766 15.9775 -6.77128 0.978985 
32 1 10.8766 15.2494 -6.11408 2.35812 
34 1 10.8766 16.0728 -5.45699 -1.50665 
37 1 10.8766 15.6794 -3.94227 -2.59515 
38 1 10.8766 15.6033 -3.24473 -0.926478 
39 1 10.8766 15.0549 -3.95537 0.511643 
41 1 10.8766 15.8167 -2.32813 -2.58333 
42 1 10.8766 -14.9576 -1.51579 -1.00883 
44 1 10.8766 -16.1035 -0.855027 2.34043 
45 1 10.8766 -15.5501 -0.940215 -2.49064 
46 1 10.8766 -14.3609 -0.837369 -1.5813 
47 1 10.8766 -15.3867 -1.17123 -0.0604648 
48 1 10.8766 -14.7807 -0.636968 2.64352 
49 1 10.8766 -14.9795 0.19303 -2.60315 
50 1 10.8766 -15.006 0.626045 -0.688386 
51 1 10.8766 -15.5647 0.513031 0.735822 
52 1 10.8766 -14.6693 0.743166 2.05883 
54 1 10.8766 -15.2702 1.64191 -1.23021 
55 1 10.8766 -14.5616 1.97425 0.0703523 
137 1 10.8766 -15.3796 -2.19669 -2.41316 
141 1 10.8766 -14.1997 -0.70485 -2.61438 
142 1 10.8766 -11.9959 -0.73826 -0.0433556 
143 1 10.8766 -14.4101 -0.259167 0.911147 
144 1 10.8766 -14.4497 -1.05451 1.58623 
145 1 10.8766 -13.714 0.168162 -2.12796 
146 1 10.8766 -12.9185 -0.236104 -0.615475 
147 1 10.8766 -13.6498 0.77675 1.06978 
148 1 10.8766 -13.2773 0.199161 1.95732 
150 1 10.8766 -13.3524 0.704243 -1.26981 
151 1 10.8766 -13.2423 1.93634 -0.0593966 
152 1 10.8766 -13.6371 1.4997 2.61069 
233 2 -10.8766 -14.0008 -1.92228 -2.05518 
234 2 -10.8766 -14.0859 -2.30306 -0.497439 
235 2 -10.8766 -11.8667 -1.90047 1.01712 
236 2 -10.8766 -14.8351 -2.3007 2.26802 
237 2 -10.8766 -12.9736 -0.804033 -2.28454 
238 2 -10.8766 -11.9141 -0.704617 -1.2165 
239 2 -10.8766 -13.8021 -1.6578 0.778602 
240 2 -10.8766 -13.6388 -0.84634 2.43865 
241 2 -10.8766 -12.588 0.717 -2.2956 
242 2 -10.8766 -14.0806 0.11961 -0.161107 
243 2 -10.8766 -12.9869 -0.469029 0.967809 
244 2 -10.8766 -12.4182 1.13655 2.4551 
245 2 -10.8766 -14.6904 1.37141 -2.30707 
246 2 -10.8766 -13.1913 1.94511 -1.22378 
247 2 -10.8766 -12.6551 0.72286 0.224257 
248 2 -10.8766 -15.0907 1.78774 1.29979 
329 2 -10.8766 -12.0048 -2.29275 -2.44383 
332 2 -10.8766 -12.4464 -2.07107 2.30414 
336 2 -10.8766 -12.0579 -0.639009 2.3877 
338 2 -10.8766 -12.1004 0.921215 -1.02776 
424 2 -10.8766 -8.88982 -1.1891 1.90767 
330 2 -10.8766 -10.352 -1.23772 -1.1527 
333 2 -10.8766 -10.7748 -0.519511 -2.47127 
334 2 -10.8766 -8.19234 0.347825 -1.18408 
335 2 -10.8766 -10.1676 -0.858719 0.52533 
337 2 -10.8766 -10.429 1.42126 -2.44687 
339 2 -10.8766 -11.3573 0.0691367 0.612129 
340 2 -10.8766 -10.2927 1.17514 2.49842 
343 2 -10.8766 -11.0441 1.64241 0.183612 
344 2 -10.8766 -8.93722 2.1372 2.25247 
43 1 10.8766 15.9593 -1.7666 0.926405 
53 1 10.8766 15.5063 1.02495 -2.52518 
56 1 10.8766 15.837 1.78256 1.75797 
58 1 10.8766 15.3861 1.99095 -1.0548 
149 1 10.8766 -14.4652 2.77801 -2.61157 
341 2 -10.8766 -12.1775 2.63907 -2.43681 
59 1 10.8766 -15.2433 3.19152 1.38912 
60 1 10.8766 -16.0591 3.29126 2.59725 
61 1 10.8766 -15.556 4.3591 -2.60368 
63 1 10.8766 -15.4302 3.75187 0.429345 
64 1 10.8766 -15.7197 4.9695 2.50126 
68 1 10.8766 -15.0197 5.39448 0.993364 
153 1 10.8766 -14.2408 3.63435 -1.51084 
154 1 10.8766 -15.7107 2.91715 -0.496286 
155 1 10.8766 -13.4674 3.51284 -0.243489 
156 1 10.8766 -14.028 3.37492 0.906002 
157 1 10.8766 -14.4409 3.99205 -2.56761 
158 1 10.8766 -12.5623 4.25875 -0.741167 
159 1 10.8766 -14.5301 3.97525 -0.40268 
160 1 10.8766 -13.8698 4.57108 1.2438 
161 1 10.8766 -14.7258 5.30205 -2.23711 
162 1 10.8766 -15.6597 5.3083 -0.391763 
163 1 10.8766 -14.1384 6.01731 0.110377 
164 1 10.8766 -14.6086 5.6119 2.47839 
249 2 -10.8766 -13.3774 3.39871 -2.29903 
250 2 -10.8766 -14.5756 2.51295 -1.07985 
251 2 -10.8766 -12.4376 2.32984 1.09287 
252 2 -10.8766 -14.6022 2.78356 2.23879 
253 2 -10.8766 -13.5637 4.90824 -2.40655 
255 2 -10.8766 -12.7944 3.64997 1.24132 
256 2 -10.8766 -14.6515 4.17987 2.35722 
257 2 -10.8766 -12.4951 5.79985 -2.13654 
258 2 -10.8766 -14.429 5.53174 -0.991155 
259 2 -10.8766 -13.7695 4.80886 -0.0240156 
260 2 -10.8766 -13.2905 5.52923 1.52521 
346 2 -10.8766 -12.0679 3.01587 -0.757088 
348 2 -10.8766 -12.2406 2.3565 2.50579 