ITEM: TIMESTEP
1000
ITEM: NUMBER OF ATOMS
424
ITEM: BOX BOUNDS pp pp ff
-1.6160100000000000e+01 1.6160100000000000e+01
-1.6160100000000000e+01 1.6160100000000000e+01
-3.1645599999999998e+00 3.1645599999999998e+00
ITEM: ATOMS id type q x y z 
183 1 10.8766 -15.075 -11.5919 0.75452 
259 2 -10.8766 -13.4057 -12.957 -0.247447 
265 2 -10.8766 -14.5491 -13.1958 0.835495 
307 2 -10.8766 -12.1487 -11.9851 -1.5333 
399 2 -10.8766 -12.417 -15.4614 0.789506 
11 1 10.8766 -11.8845 -11.5562 0.0220379 
253 2 -10.8766 -13.9531 -12.0238 -1.9768 
232 2 -10.8766 -10.9634 -12.7396 1.8338 
63 1 10.8766 -9.31498 -16.0393 0.581866 
225 2 -10.8766 -9.50797 -11.7516 0.898182 
74 1 10.8766 -5.38011 -13.8826 0.30889 
141 1 10.8766 -2.95595 -13.974 0.806364 
188 1 10.8766 -3.09076 -13.047 -1.09704 
285 2 -10.8766 -3.8272 -14.5447 -0.796671 
417 2 -10.8766 -4.18738 -15.8355 2.3682 
213 2 -10.8766 -2.83071 -12.2276 0.517814 
283 2 -10.8766 -6.09317 -12.8677 1.65694 
20 1 10.8766 -1.87219 -12.9013 -2.18622 
70 1 10.8766 0.858522 -14.9815 -1.39241 
80 1 10.8766 -0.361515 -15.0038 1.61287 
228 2 -10.8766 -0.382275 -12.109 -1.97824 
231 2 -10.8766 0.766681 -12.3234 -0.930919 
315 2 -10.8766 1.80782 -14.1363 -0.124859 
320 2 -10.8766 -1.51955 -12.329 2.4998 
66 1 10.8766 0.900339 -12.2036 0.615435 
290 2 -10.8766 3.79192 -13.2726 -1.49654 
30 1 10.8766 5.86631 -13.6685 -2.43461 
38 1 10.8766 2.9252 -14.557 -0.519894 
72 1 10.8766 4.70172 -15.8586 -2.15041 
103 1 10.8766 6.74083 -15.8304 -0.22161 
119 1 10.8766 5.15577 -14.8894 0.950982 
182 1 10.8766 5.24495 -13.1926 0.73523 
236 2 -10.8766 5.51343 -16.0799 -0.59758 
248 2 -10.8766 3.35368 -15.4317 -1.90895 
345 2 -10.8766 5.41877 -14.9298 -1.64254 
280 2 -10.8766 6.43748 -12.1809 -2.08879 
10 1 10.8766 7.36019 -13.7027 1.16066 
45 1 10.8766 11.0423 -15.0041 -0.616071 
76 1 10.8766 8.6071 -13.4522 -2.35924 
125 1 10.8766 7.92851 -15.0114 1.79306 
298 2 -10.8766 9.45059 -14.7353 -1.43586 
319 2 -10.8766 7.76453 -13.0012 -1.74896 
350 2 -10.8766 9.22856 -13.0918 0.849602 
178 1 10.8766 10.2344 -11.7271 -1.90497 
296 2 -10.8766 11.6751 -15.8641 0.0957142 
120 1 10.8766 11.6886 -13.8063 -0.304984 
151 1 10.8766 14.2985 -11.9182 -1.63402 
240 2 -10.8766 12.0675 -11.5857 -0.356144 
251 2 -10.8766 13.8178 -13.804 -1.27166 
338 2 -10.8766 12.8769 -14.5741 1.13462 
316 2 -10.8766 16.0623 -11.8202 -1.22479 
112 1 10.8766 -12.5134 -9.21845 -0.70962 
115 1 10.8766 -13.0167 -10.117 1.53418 
205 1 10.8766 -14.6931 -10.7402 1.99261 
210 1 10.8766 -12.1677 -9.85144 -1.58249 
312 2 -10.8766 -13.6951 -8.62053 0.0636786 
377 2 -10.8766 -13.976 -9.137 -2.44514 
26 1 10.8766 -15.1599 -7.61267 -1.9146 
50 1 10.8766 -12.4382 -8.30201 -2.61333 
235 2 -10.8766 -12.3589 -8.06772 -0.92614 
329 2 -10.8766 -9.62492 -11.2537 -2.4497 
407 2 -10.8766 -11.5021 -9.44854 0.758685 
5 1 10.8766 -9.18457 -8.90901 -2.13005 
37 1 10.8766 -8.46543 -9.77024 0.543632 
54 1 10.8766 -10.7955 -7.35712 -2.3202 
131 1 10.8766 -8.32917 -9.4047 -0.674832 
247 2 -10.8766 -10.1943 -9.34193 1.18169 
371 2 -10.8766 -10.4563 -10.0693 -1.61715 
396 2 -10.8766 -7.75496 -10.1707 -1.96788 
32 1 10.8766 -7.19859 -8.84341 -2.08303 
12 1 10.8766 -9.14322 -7.79542 -1.67493 
187 1 10.8766 -9.62642 -8.11197 -0.169817 
8 1 10.8766 -6.51493 -10.6774 -1.25734 
238 2 -10.8766 -6.19422 -8.78889 -0.784464 
18 1 10.8766 -5.41409 -9.458 0.112456 
42 1 10.8766 -4.12221 -7.4776 0.0612095 
130 1 10.8766 -2.86494 -10.5485 0.0238437 
179 1 10.8766 -3.88874 -8.90805 0.427935 
211 1 10.8766 -4.82864 -9.32754 -1.63693 
363 2 -10.8766 -5.07676 -11.437 -2.41475 
413 2 -10.8766 -5.04454 -11.032 -0.340233 
190 1 10.8766 -2.39555 -8.99049 0.183107 
297 2 -10.8766 -2.54966 -10.2638 1.844 
221 2 -10.8766 -1.98659 -11.1967 -1.7873 
15 1 10.8766 -0.726168 -10.361 0.60008 
227 2 -10.8766 -0.910286 -8.37161 -0.746579 
314 2 -10.8766 -0.289316 -8.42985 -1.97867 
325 2 -10.8766 -0.521269 -11.2835 -0.373731 
348 2 -10.8766 -1.38562 -9.0628 1.02476 
364 2 -10.8766 1.3119 -9.50619 0.681675 
168 1 10.8766 2.88051 -9.0164 1.33922 
16 1 10.8766 5.19648 -10.8388 -1.08046 
67 1 10.8766 2.3559 -11.1518 -0.00156369 
148 1 10.8766 5.70956 -8.58938 -0.957277 
170 1 10.8766 3.46095 -9.61904 -0.331461 
174 1 10.8766 3.62963 -9.51933 -2.49487 
387 2 -10.8766 3.56392 -10.2727 1.74636 
299 2 -10.8766 4.89663 -7.69211 -0.382304 
279 2 -10.8766 9.66443 -10.6486 -1.40429 
263 2 -10.8766 7.38182 -9.91239 -1.17371 
52 1 10.8766 10.5333 -9.55781 -1.17779 
137 1 10.8766 11.1517 -8.02674 -2.44204 
155 1 10.8766 9.84746 -8.26325 -1.26257 
403 2 -10.8766 7.95114 -8.24312 0.828676 
411 2 -10.8766 9.09149 -11.1601 0.482733 
156 1 10.8766 11.2548 -9.55264 -0.25142 
193 1 10.8766 8.26008 -7.32979 1.38181 
35 1 10.8766 13.2263 -9.83344 0.649433 
87 1 10.8766 14.162 -7.80207 -2.36137 
126 1 10.8766 13.3818 -8.14594 -0.859506 
196 1 10.8766 13.4649 -10.6097 -2.27836 
219 2 -10.8766 12.5505 -10.4886 -1.29407 
323 2 -10.8766 14.9759 -10.1081 -2.43856 
339 2 -10.8766 12.0173 -8.05716 -0.808603 
95 1 10.8766 -14.4735 -6.12454 2.5939 
289 2 -10.8766 -15.8143 -6.21998 0.405146 
17 1 10.8766 -15.5898 -4.64452 1.22336 
122 1 10.8766 -14.4341 -4.51874 -1.25238 
134 1 10.8766 -12.3285 -6.59255 -0.403725 
175 1 10.8766 -15.9571 -2.40291 -0.396568 
262 2 -10.8766 -11.9603 -3.66703 0.683391 
390 2 -10.8766 -12.5786 -5.19384 -0.765138 
394 2 -10.8766 -14.5302 -2.6427 1.35805 
75 1 10.8766 -11.7027 -2.40014 -1.07168 
135 1 10.8766 -12.3512 -2.31499 2.47612 
424 2 -10.8766 -7.69458 -5.50032 -1.8202 
113 1 10.8766 -11.0874 -5.03348 1.66751 
27 1 10.8766 -7.09834 -4.19671 1.43159 
136 1 10.8766 -8.95544 -4.64379 0.463195 
194 1 10.8766 -7.33848 -5.29141 0.27421 
203 1 10.8766 -7.1862 -4.42879 -2.3899 
291 2 -10.8766 -10.5261 -2.81315 1.23065 
355 2 -10.8766 -11.0686 -5.76679 -2.33261 
359 2 -10.8766 -10.8444 -3.57027 -2.36927 
422 2 -10.8766 -8.5435 -6.84366 0.0829072 
192 1 10.8766 -8.88885 -3.16404 -1.45067 
48 1 10.8766 -4.35942 -4.14476 0.378146 
111 1 10.8766 -6.53699 -5.52335 -1.12818 
274 2 -10.8766 -4.49489 -4.43632 -1.75719 
322 2 -10.8766 -4.02383 -3.6691 2.33247 
346 2 -10.8766 -6.10779 -2.45762 -0.544086 
368 2 -10.8766 -6.17322 -4.34458 -0.478784 
369 2 -10.8766 -3.10947 -2.48975 -1.87102 
401 2 -10.8766 -4.88104 -5.77686 -0.727201 
402 2 -10.8766 -2.92296 -4.28448 -0.156168 
186 1 10.8766 -6.36084 -2.66737 2.23426 
102 1 10.8766 -1.93306 -6.77452 -1.66645 
270 2 -10.8766 1.59072 -6.62497 1.78789 
311 2 -10.8766 1.7411 -6.62479 -0.686357 
44 1 10.8766 -2.03415 -3.93477 -2.47129 
344 2 -10.8766 -0.900884 -4.98418 -1.92599 
49 1 10.8766 1.67045 -2.74593 -1.92791 
144 1 10.8766 -0.0679541 -6.65361 0.996652 
167 1 10.8766 -2.01247 -3.36912 -1.14592 
173 1 10.8766 -0.590614 -3.8989 -1.71627 
260 2 -10.8766 1.34791 -3.92075 -0.435924 
341 2 -10.8766 -0.835858 -2.79985 -0.764204 
365 2 -10.8766 4.43144 -6.16207 -1.36337 
142 1 10.8766 5.82475 -5.81854 0.703996 
159 1 10.8766 6.91448 -2.60428 0.330355 
209 1 10.8766 3.48903 -5.51168 1.75241 
250 2 -10.8766 3.1746 -4.40718 -2.13009 
267 2 -10.8766 3.79303 -4.00488 1.7008 
357 2 -10.8766 3.73915 -4.93237 -0.102127 
389 2 -10.8766 6.51608 -3.57369 -0.575951 
367 2 -10.8766 6.60814 -5.34243 -1.46109 
65 1 10.8766 6.82059 -3.27952 -1.84802 
176 1 10.8766 7.8933 -3.45944 -2.64287 
39 1 10.8766 11.4988 -6.09369 0.955821 
127 1 10.8766 7.2465 -4.21766 0.536454 
165 1 10.8766 9.33219 -6.85362 -1.27928 
242 2 -10.8766 10.6696 -6.48379 -1.86193 
304 2 -10.8766 8.36768 -5.99457 0.0959812 
381 2 -10.8766 9.65579 -4.30178 -1.78692 
383 2 -10.8766 10.0332 -3.04902 -0.44899 
405 2 -10.8766 8.40321 -5.06356 -2.37513 
332 2 -10.8766 11.2586 -3.17904 -1.83259 
1 1 10.8766 14.9684 -6.58042 -0.591086 
287 2 -10.8766 13.2988 -2.52683 1.68101 
391 2 -10.8766 12.5995 -4.0642 1.44288 
207 1 10.8766 14.3055 -3.15812 0.472497 
356 2 -10.8766 12.7846 -6.25654 -1.99079 
358 2 -10.8766 14.6186 -4.2725 -0.391776 
306 2 -10.8766 14.1438 -2.88418 -1.1794 
21 1 10.8766 -14.3604 -1.57282 0.549017 
108 1 10.8766 -14.0575 -0.173982 -1.26491 
133 1 10.8766 -14.4793 0.854127 -1.58261 
161 1 10.8766 -13.1915 0.584733 1.53321 
172 1 10.8766 -12.4291 1.47909 -2.45879 
385 2 -10.8766 -14.7074 -2.02692 -1.10277 
420 2 -10.8766 -13.1289 0.706657 -0.540807 
421 2 -10.8766 -12.2451 -0.948003 1.95121 
34 1 10.8766 -12.7784 -1.5168 -1.12479 
177 1 10.8766 -11.9736 1.61716 2.32308 
40 1 10.8766 -7.62189 -2.21839 -0.766618 
4 1 10.8766 -10.5894 -1.85989 -0.17453 
13 1 10.8766 -10.9598 2.09034 -2.43929 
121 1 10.8766 -7.0137 -0.504555 -1.80751 
129 1 10.8766 -8.06891 0.0318885 0.672826 
139 1 10.8766 -8.0549 0.975293 -0.901419 
204 1 10.8766 -9.21109 2.22124 0.33683 
212 1 10.8766 -10.271 0.827067 0.66398 
220 2 -10.8766 -9.76177 0.18858 -1.75891 
286 2 -10.8766 -7.47026 0.189745 2.25198 
321 2 -10.8766 -10.7694 -0.576431 0.956168 
370 2 -10.8766 -9.49196 1.08788 -0.692182 
374 2 -10.8766 -11.376 2.25318 1.08317 
51 1 10.8766 -4.27351 -1.0179 -0.78506 
109 1 10.8766 -5.50944 1.01546 -0.0715707 
143 1 10.8766 -4.45975 1.43925 -1.80565 
234 2 -10.8766 -4.26741 -2.14931 0.479407 
243 2 -10.8766 -3.37322 -0.0332414 -2.14037 
254 2 -10.8766 -3.90794 2.2897 -1.10405 
333 2 -10.8766 -6.1445 0.124343 0.836821 
353 2 -10.8766 -5.4208 -0.987172 -0.178718 
393 2 -10.8766 -4.79229 0.0812714 -1.71959 
146 1 10.8766 -5.67099 1.68368 -2.47144 
69 1 10.8766 -5.31607 2.06875 2.1111 
271 2 -10.8766 -3.46713 2.05887 1.47374 
335 2 -10.8766 -1.57237 0.916864 -1.6898 
7 1 10.8766 -0.392896 1.1785 -1.45842 
47 1 10.8766 1.9694 -0.314516 0.494619 
86 1 10.8766 -0.452205 -1.82411 0.00858244 
118 1 10.8766 0.45691 -0.214027 -1.63639 
145 1 10.8766 -1.02948 -0.0387805 -0.442928 
379 2 -10.8766 1.38509 -0.770708 -2.43938 
412 2 -10.8766 1.33199 0.788488 0.0125587 
105 1 10.8766 2.139 0.301696 2.58098 
388 2 -10.8766 -1.31161 0.904303 0.584634 
294 2 -10.8766 4.86585 -2.29522 0.526344 
56 1 10.8766 4.96732 -0.360486 -2.57785 
61 1 10.8766 6.79724 -1.19205 2.18954 
71 1 10.8766 2.6948 2.17467 -0.987571 
101 1 10.8766 3.00873 -0.421598 0.538236 
124 1 10.8766 4.13275 0.23063 -1.40646 
149 1 10.8766 5.20867 -0.261379 -0.415639 
185 1 10.8766 4.52355 1.13364 -0.51804 
293 2 -10.8766 2.77376 -2.06489 -1.02103 
300 2 -10.8766 5.21382 1.81993 1.96222 
337 2 -10.8766 5.61878 0.199306 -1.69611 
352 2 -10.8766 3.11552 0.0930413 -2.38282 
392 2 -10.8766 5.25177 2.09993 -1.401 
400 2 -10.8766 5.78894 1.3206 0.128567 
64 1 10.8766 6.72721 -1.63771 -1.36629 
206 1 10.8766 6.747 1.26277 1.96032 
106 1 10.8766 9.12967 0.490018 -0.915592 
180 1 10.8766 11.3358 -1.92236 -2.30699 
181 1 10.8766 6.94223 0.588026 -2.59384 
208 1 10.8766 10.2213 -0.172358 -2.14144 
305 2 -10.8766 7.46866 0.0394313 -1.60711 
380 2 -10.8766 7.20015 -1.1389 -2.43838 
395 2 -10.8766 9.36415 -0.267382 0.266651 
378 2 -10.8766 10.0391 1.2876 1.43047 
171 1 10.8766 8.16058 1.83594 -0.14826 
107 1 10.8766 11.6464 -1.14336 0.107032 
83 1 10.8766 11.8189 2.12065 0.182097 
93 1 10.8766 13.3084 0.702511 0.87919 
110 1 10.8766 12.2452 0.360865 -0.338301 
195 1 10.8766 12.745 -1.00876 -1.2485 
303 2 -10.8766 14.1806 1.28186 -0.270642 
327 2 -10.8766 14.201 -1.30783 -1.92093 
414 2 -10.8766 11.9115 0.486822 1.0979 
24 1 10.8766 -12.3456 3.93182 -0.704675 
46 1 10.8766 -14.4643 3.67334 1.54891 
62 1 10.8766 -13.8104 4.98307 -0.0450687 
150 1 10.8766 -13.4909 5.55402 1.28647 
157 1 10.8766 -13.7106 2.97567 -1.79776 
201 1 10.8766 -11.7971 5.45449 -2.55183 
255 2 -10.8766 -13.4899 6.04223 -0.767437 
288 2 -10.8766 -14.8943 3.67539 -0.488241 
397 2 -10.8766 -13.2249 4.54711 -2.12675 
68 1 10.8766 -11.6545 4.40925 -1.35819 
360 2 -10.8766 -12.6633 6.63197 0.238181 
57 1 10.8766 -10.6204 6.22192 0.312871 
160 1 10.8766 -10.087 5.38234 -0.657764 
261 2 -10.8766 -8.33053 3.50079 -0.130048 
277 2 -10.8766 -9.57394 4.37632 0.496098 
347 2 -10.8766 -9.35168 4.16787 -2.36463 
354 2 -10.8766 -11.4499 5.72845 -1.22124 
342 2 -10.8766 -9.02932 5.90778 -2.16436 
215 2 -10.8766 -6.27788 2.8882 -0.922367 
36 1 10.8766 -6.5314 4.07547 -0.457406 
281 2 -10.8766 -5.19022 4.58208 2.12395 
23 1 10.8766 -2.7061 2.7354 -0.390447 
84 1 10.8766 -4.60245 5.66529 -2.45362 
99 1 10.8766 -5.63368 4.00885 -2.27186 
199 1 10.8766 -4.49295 5.28625 1.11622 
216 2 -10.8766 -4.60364 2.85312 0.0231147 
264 2 -10.8766 -3.59229 4.10893 0.00192399 
295 2 -10.8766 -2.73461 3.44274 -1.50164 
349 2 -10.8766 -3.42944 6.16749 -2.05914 
386 2 -10.8766 -5.20562 6.76317 -0.131413 
88 1 10.8766 -2.98889 4.771 0.902639 
158 1 10.8766 2.02097 2.66809 2.47553 
416 2 -10.8766 1.12875 3.65984 1.18299 
324 2 -10.8766 -1.94109 5.9859 0.39377 
154 1 10.8766 -1.41601 4.00392 -0.773844 
166 1 10.8766 0.422636 6.06831 -0.69139 
252 2 -10.8766 0.325257 5.84159 1.13138 
239 2 -10.8766 1.53728 2.69457 -1.3241 
60 1 10.8766 4.63895 3.36712 -0.169032 
128 1 10.8766 6.84035 2.42221 -2.49197 
19 1 10.8766 5.70979 6.5806 0.589385 
28 1 10.8766 2.52212 4.15562 -0.308947 
33 1 10.8766 5.22282 6.90569 -1.25484 
96 1 10.8766 4.03179 4.81154 -2.09234 
114 1 10.8766 6.67461 4.76786 -0.866879 
153 1 10.8766 5.10328 5.2864 1.35482 
310 2 -10.8766 3.14103 6.54971 -0.314789 
331 2 -10.8766 6.526 3.17545 -0.294613 
91 1 10.8766 9.65009 2.41651 -1.70781 
229 2 -10.8766 7.37378 5.57242 0.175263 
41 1 10.8766 9.47747 4.0543 -2.1405 
94 1 10.8766 9.07756 5.40084 -0.934879 
258 2 -10.8766 7.7276 5.30572 -2.10554 
284 2 -10.8766 8.02841 3.01797 -0.667287 
301 2 -10.8766 10.8696 4.80306 -0.925426 
419 2 -10.8766 9.78623 3.26533 -0.591999 
326 2 -10.8766 12.2946 2.45196 -1.65847 
233 2 -10.8766 11.7723 5.14528 2.45371 
237 2 -10.8766 13.7039 6.09728 -2.42426 
318 2 -10.8766 13.0899 4.2568 -0.78009 
98 1 10.8766 11.6108 6.67452 1.20888 
79 1 10.8766 -14.7744 8.07469 -2.14297 
200 1 10.8766 -14.0669 7.02216 -1.31996 
31 1 10.8766 -14.318 8.10119 -0.763779 
43 1 10.8766 -13.4657 7.75135 1.41445 
73 1 10.8766 -12.5643 8.54079 -0.57441 
89 1 10.8766 -13.5666 10.8608 -2.488 
132 1 10.8766 -12.2949 7.09788 -1.8593 
202 1 10.8766 -15.1826 8.98765 -0.762161 
218 2 -10.8766 -14.782 9.12753 1.05963 
292 2 -10.8766 -13.7118 10.0215 -0.988658 
410 2 -10.8766 -13.1102 8.078 -2.32027 
152 1 10.8766 -7.67488 7.4999 1.40487 
169 1 10.8766 -11.1486 9.63624 -2.60684 
226 2 -10.8766 -8.49804 7.95621 0.0278134 
256 2 -10.8766 -10.7834 10.6219 -0.680405 
272 2 -10.8766 -9.8108 9.80927 1.07242 
278 2 -10.8766 -8.76725 9.95473 -0.0132722 
308 2 -10.8766 -11.3883 8.2802 -0.375162 
406 2 -10.8766 -7.92975 8.17483 -1.67342 
14 1 10.8766 -7.53957 10.6118 -0.486667 
162 1 10.8766 -6.86539 9.17504 -1.11169 
222 2 -10.8766 -6.378 11.3337 -2.09007 
3 1 10.8766 -6.02411 11.0367 1.50276 
22 1 10.8766 -2.7542 8.44052 0.597193 
55 1 10.8766 -3.71529 7.61091 -0.331563 
104 1 10.8766 -4.45925 8.07761 0.309904 
191 1 10.8766 -6.69432 7.59505 -1.44758 
245 2 -10.8766 -6.31094 10.2617 -0.427972 
249 2 -10.8766 -2.3614 8.04439 -0.501624 
313 2 -10.8766 -2.70856 8.48573 -2.31691 
351 2 -10.8766 -3.80527 10.1311 -1.80309 
138 1 10.8766 -4.26206 10.9337 0.514594 
29 1 10.8766 1.88341 7.09722 2.4284 
25 1 10.8766 -0.590276 7.0887 -2.31588 
197 1 10.8766 -1.98979 9.7876 -2.29663 
224 2 -10.8766 -0.342486 9.52555 -1.01759 
340 2 -10.8766 -1.11267 8.33621 -1.70862 
375 2 -10.8766 -0.16738 7.82588 -0.206883 
164 1 10.8766 -1.38178 11.3771 1.38687 
82 1 10.8766 2.58986 7.30971 -2.25618 
9 1 10.8766 3.83549 8.03124 1.80801 
77 1 10.8766 3.74788 10.8575 -1.13224 
223 2 -10.8766 3.32582 7.02104 1.23275 
230 2 -10.8766 6.76535 11.4267 -1.7983 
276 2 -10.8766 3.20268 9.65522 2.28251 
328 2 -10.8766 3.35605 11.4287 -0.0944463 
334 2 -10.8766 4.68462 8.89927 -2.308 
361 2 -10.8766 6.45389 8.478 -2.28334 
409 2 -10.8766 6.5469 9.64169 -0.277855 
423 2 -10.8766 5.79808 10.8706 1.11348 
2 1 10.8766 6.85448 8.48883 -0.462287 
184 1 10.8766 9.44612 7.44996 -0.262201 
81 1 10.8766 9.9762 9.6798 -0.576887 
116 1 10.8766 7.29179 10.04 -1.44682 
302 2 -10.8766 10.8376 6.93908 -1.73143 
309 2 -10.8766 8.47703 7.99111 -2.19111 
376 2 -10.8766 7.38874 9.04142 2.34916 
382 2 -10.8766 8.66577 8.93623 0.647706 
415 2 -10.8766 10.3488 9.61853 -1.81905 
78 1 10.8766 11.3536 10.2003 -1.11674 
384 2 -10.8766 10.3847 8.8454 0.231938 
408 2 -10.8766 13.361 7.14068 1.17543 
163 1 10.8766 15.4646 10.1203 1.15042 
97 1 10.8766 12.0289 8.83754 -2.36341 
100 1 10.8766 13.9641 10.7977 -0.590844 
273 2 -10.8766 13.8271 9.58251 -0.366481 
275 2 -10.8766 12.9211 11.051 2.31256 
282 2 -10.8766 14.2741 7.34921 -1.20681 
90 1 10.8766 -12.5327 11.9163 -0.332677 
92 1 10.8766 -15.5117 11.7324 -2.03768 
140 1 10.8766 -14.061 14.2822 -1.83174 
189 1 10.8766 -13.1925 15.2353 1.03604 
244 2 -10.8766 -12.2461 12.2482 1.8462 
268 2 -10.8766 -15.8894 12.8731 0.747603 
372 2 -10.8766 -13.412 12.3557 -2.22158 
53 1 10.8766 -11.8571 14.6573 -0.337184 
217 2 -10.8766 -11.574 11.6337 -1.81896 
85 1 10.8766 -9.88513 11.903 1.14311 
257 2 -10.8766 -8.79272 11.9237 -2.28755 
404 2 -10.8766 -10.2719 13.146 -1.00065 
418 2 -10.8766 -5.8794 16.0914 0.195041 
198 1 10.8766 -2.89315 15.8072 -0.187575 
317 2 -10.8766 -6.70765 12.118 1.92599 
336 2 -10.8766 -4.44718 12.6126 -0.455933 
362 2 -10.8766 -2.13077 12.4496 -0.431428 
147 1 10.8766 -1.96747 14.1457 1.76739 
330 2 -10.8766 2.18408 12.5156 -0.269989 
366 2 -10.8766 -0.844725 15.3651 0.477289 
6 1 10.8766 3.24462 13.906 -0.587222 
58 1 10.8766 4.2909 12.3973 0.700999 
117 1 10.8766 6.0825 12.6125 -2.25309 
266 2 -10.8766 6.16779 14.7198 -1.6921 
343 2 -10.8766 3.86431 13.7152 -1.52851 
269 2 -10.8766 7.68521 12.3105 -0.893541 
59 1 10.8766 8.27252 12.3724 0.783192 
123 1 10.8766 9.66259 14.6489 -0.601005 
246 2 -10.8766 9.428 12.4764 0.307842 
398 2 -10.8766 8.99078 14.4486 -1.73665 
214 2 -10.8766 11.546 11.9686 -0.684703 
241 2 -10.8766 13.5177 11.9969 -1.12683 
373 2 -10.8766 13.7242 11.7631 0.804055 
ITEM: TIMESTEP
1100
ITEM: NUMBER OF ATOMS
424
ITEM: BOX BOUNDS pp pp ff
-1.6160100000000000e+01 1.6160100000000000e+01
-1.6160100000000000e+01 1.6160100000000000e+01
-3.1645599999999998e+00 3.1645599999999998e+00
ITEM: ATOMS id type q x y z 
183 1 10.8766 -15.1191 -11.5639 0.70548 
259 2 -10.8766 -13.4332 -12.9909 -0.33041 
265 2 -10.8766 -14.6386 -13.0351 0.910911 
307 2 -10.8766 -12.1097 -11.9315 -1.57156 
399 2 -10.8766 -12.5157 -15.591 0.888948 
11 1 10.8766 -11.842 -11.6363 -0.00277088 
253 2 -10.8766 -13.9566 -12.1689 -1.96898 
232 2 -10.8766 -10.917 -12.7192 2.07771 
63 1 10.8766 -9.37798 -16.0927 0.63896 
225 2 -10.8766 -9.3671 -11.6456 0.965588 
74 1 10.8766 -5.4586 -13.9969 0.482537 
141 1 10.8766 -2.78859 -14.0401 0.831109 
188 1 10.8766 -2.97332 -13.134 -1.07557 
285 2 -10.8766 -3.8455 -14.4066 -0.809958 
417 2 -10.8766 -4.09889 -15.9404 2.49268 
213 2 -10.8766 -2.98498 -12.253 0.715524 
283 2 -10.8766 -5.91369 -12.9836 1.76528 
20 1 10.8766 -1.99434 -12.893 -2.2878 
70 1 10.8766 0.799975 -14.9699 -1.36693 
80 1 10.8766 -0.428509 -15.013 1.68173 
228 2 -10.8766 -0.460444 -12.0807 -1.85033 
231 2 -10.8766 0.971679 -12.4245 -1.00618 
315 2 -10.8766 1.73063 -14.1195 0.00327769 
320 2 -10.8766 -1.63761 -12.2347 2.42331 
66 1 10.8766 0.688135 -12.2882 0.72913 
290 2 -10.8766 3.98812 -13.2016 -1.43633 
30 1 10.8766 5.87746 -13.7545 -2.4945 
38 1 10.8766 2.73474 -14.568 -0.589125 
72 1 10.8766 4.83199 -16.0018 -2.07741 
103 1 10.8766 6.79127 -16.0737 -0.207628 
119 1 10.8766 5.2756 -14.9354 0.952513 
182 1 10.8766 5.29695 -13.1962 0.688235 
236 2 -10.8766 5.46742 -16.1087 -0.532461 
248 2 -10.8766 3.42542 -15.5121 -2.03842 
345 2 -10.8766 5.26623 -14.9876 -1.67086 
280 2 -10.8766 6.26478 -12.1583 -2.27695 
10 1 10.8766 7.47325 -13.7982 1.16018 
45 1 10.8766 10.9915 -14.9829 -0.506642 
76 1 10.8766 8.59354 -13.3742 -2.41163 
125 1 10.8766 7.898 -15.1045 1.86664 
298 2 -10.8766 9.46946 -14.874 -1.35628 
319 2 -10.8766 7.66366 -12.9419 -1.64314 
350 2 -10.8766 9.217 -13.116 0.864507 
178 1 10.8766 10.1527 -11.851 -1.80687 
296 2 -10.8766 11.681 -15.9805 0.0624054 
120 1 10.8766 11.6523 -13.89 -0.246259 
151 1 10.8766 14.4524 -11.9269 -1.727 
240 2 -10.8766 12.0629 -11.4178 -0.256123 
251 2 -10.8766 13.9055 -13.8852 -1.27716 
338 2 -10.8766 12.9278 -14.5741 1.18473 
316 2 -10.8766 15.9457 -11.8758 -1.13109 
112 1 10.8766 -12.5421 -9.30382 -0.741762 
115 1 10.8766 -13.055 -10.2336 1.68275 
205 1 10.8766 -14.6261 -10.8605 2.10648 
210 1 10.8766 -12.0461 -9.98842 -1.37734 
312 2 -10.8766 -13.6357 -8.44274 0.206599 
377 2 -10.8766 -13.8817 -8.99203 -2.46214 
26 1 10.8766 -15.2643 -7.80934 -1.76235 
50 1 10.8766 -12.391 -8.49535 -2.6147 
235 2 -10.8766 -12.2277 -8.12029 -0.978382 
329 2 -10.8766 -9.72227 -11.1214 -2.36651 
407 2 -10.8766 -11.6844 -9.38836 0.748745 
5 1 10.8766 -9.3848 -8.86324 -2.14497 
37 1 10.8766 -8.35336 -9.85484 0.60465 
54 1 10.8766 -10.7687 -7.33416 -2.51212 
131 1 10.8766 -8.36077 -9.34527 -0.595118 
247 2 -10.8766 -10.2047 -9.2551 1.33269 
371 2 -10.8766 -10.3943 -10.0317 -1.68026 
396 2 -10.8766 -7.54185 -10.2492 -1.92009 
32 1 10.8766 -7.33755 -8.77417 -1.93962 
12 1 10.8766 -9.17364 -7.76318 -1.61481 
187 1 10.8766 -9.63053 -8.32676 -0.0842185 
8 1 10.8766 -6.6239 -10.5984 -1.2722 
238 2 -10.8766 -6.18507 -8.84715 -0.829296 
18 1 10.8766 -5.56233 -9.41794 0.154411 
42 1 10.8766 -3.96489 -7.25581 0.160662 
130 1 10.8766 -2.9339 -10.6748 0.0234765 
179 1 10.8766 -3.94121 -9.00854 0.530836 
211 1 10.8766 -4.84049 -9.40254 -1.65881 
363 2 -10.8766 -5.12261 -11.4907 -2.48636 
413 2 -10.8766 -4.93979 -10.9767 -0.303571 
190 1 10.8766 -2.4598 -9.12643 0.301759 
297 2 -10.8766 -2.7582 -10.2337 1.96169 
221 2 -10.8766 -1.9362 -11.1302 -1.90243 
15 1 10.8766 -0.479091 -10.3299 0.746119 
227 2 -10.8766 -0.964945 -8.29996 -0.559041 
314 2 -10.8766 -0.359594 -8.38032 -1.93971 
325 2 -10.8766 -0.548603 -11.2883 -0.310829 
348 2 -10.8766 -1.49023 -9.1191 1.03173 
364 2 -10.8766 1.31504 -9.48491 0.794594 
168 1 10.8766 2.90333 -9.02174 1.37976 
16 1 10.8766 5.16156 -10.8954 -1.16716 
67 1 10.8766 2.18648 -11.1098 -0.0681467 
148 1 10.8766 5.79278 -8.50119 -1.02393 
170 1 10.8766 3.30969 -9.71168 -0.366507 
174 1 10.8766 3.56852 -9.50884 -2.3402 
387 2 -10.8766 3.59097 -10.3281 1.81392 
299 2 -10.8766 4.78236 -7.85001 -0.332409 
279 2 -10.8766 9.57463 -10.4981 -1.47697 
263 2 -10.8766 7.44031 -10.0057 -1.0068 
52 1 10.8766 10.5707 -9.63862 -1.12097 
137 1 10.8766 11.2756 -7.76618 -2.52626 
155 1 10.8766 9.79526 -8.16082 -1.31596 
403 2 -10.8766 7.96708 -8.27494 0.789183 
411 2 -10.8766 9.15154 -11.115 0.43113 
156 1 10.8766 11.148 -9.51841 -0.162737 
193 1 10.8766 8.46846 -7.28656 1.52258 
35 1 10.8766 13.3069 -9.85362 0.640927 
87 1 10.8766 14.2036 -7.77786 -2.32486 
126 1 10.8766 13.4486 -8.15045 -0.8009 
196 1 10.8766 13.5547 -10.8258 -2.37813 
219 2 -10.8766 12.6711 -10.4914 -1.34262 
323 2 -10.8766 15.1105 -10.1946 -2.40339 
339 2 -10.8766 11.9634 -8.08409 -0.93187 
95 1 10.8766 -14.529 -5.98814 2.64121 
289 2 -10.8766 -15.9445 -6.12043 0.467719 
17 1 10.8766 -15.7476 -4.51109 1.34156 
122 1 10.8766 -14.5997 -4.62451 -1.14572 
134 1 10.8766 -12.3071 -6.5913 -0.478198 
175 1 10.8766 -16.0728 -2.22723 -0.353125 
262 2 -10.8766 -11.9306 -3.77778 0.615736 
390 2 -10.8766 -12.4623 -5.29942 -0.943587 
394 2 -10.8766 -14.6242 -2.70564 1.44679 
75 1 10.8766 -11.7972 -2.4006 -1.18643 
135 1 10.8766 -12.5086 -2.42913 2.69075 
424 2 -10.8766 -7.70384 -5.39109 -1.70036 
113 1 10.8766 -11.0131 -5.06734 1.81414 
27 1 10.8766 -6.97252 -4.23935 1.6293 
136 1 10.8766 -8.89326 -4.63376 0.468243 
194 1 10.8766 -7.29492 -5.39281 0.373513 
203 1 10.8766 -7.10629 -4.58704 -2.2183 
291 2 -10.8766 -10.616 -2.77466 1.21245 
355 2 -10.8766 -11.0465 -5.84393 -2.27659 
359 2 -10.8766 -10.9842 -3.49287 -2.18163 
422 2 -10.8766 -8.51858 -6.85661 0.204158 
192 1 10.8766 -8.72801 -3.21092 -1.47898 
48 1 10.8766 -4.11823 -3.98803 0.512159 
111 1 10.8766 -6.6197 -5.40729 -1.07086 
274 2 -10.8766 -4.49325 -4.53042 -1.6554 
322 2 -10.8766 -3.93576 -3.55661 2.52128 
346 2 -10.8766 -6.18753 -2.44431 -0.6786 
368 2 -10.8766 -6.09708 -4.35203 -0.488228 
369 2 -10.8766 -3.13805 -2.42786 -1.77378 
401 2 -10.8766 -4.83754 -5.70105 -0.867276 
402 2 -10.8766 -2.77325 -4.22827 -0.092895 
186 1 10.8766 -6.27436 -2.7321 2.53203 
102 1 10.8766 -1.67724 -6.62049 -1.752 
270 2 -10.8766 1.56437 -6.50638 1.87979 
311 2 -10.8766 1.68904 -6.51774 -0.708454 
44 1 10.8766 -2.01164 -3.84019 -2.44842 
344 2 -10.8766 -0.862752 -5.11642 -2.05376 
49 1 10.8766 1.74749 -2.76227 -1.95712 
144 1 10.8766 -0.0154054 -6.8009 0.983596 
167 1 10.8766 -2.06213 -3.4424 -0.988385 
173 1 10.8766 -0.546793 -3.70882 -1.85591 
260 2 -10.8766 1.24892 -3.95578 -0.474911 
341 2 -10.8766 -0.873801 -2.78818 -0.724851 
365 2 -10.8766 4.56999 -6.0909 -1.28173 
142 1 10.8766 5.77711 -5.91827 0.790522 
159 1 10.8766 6.95848 -2.50811 0.273211 
209 1 10.8766 3.57189 -5.62661 1.87684 
250 2 -10.8766 3.06902 -4.30554 -2.20176 
267 2 -10.8766 3.9022 -4.00072 1.86667 
357 2 -10.8766 3.87961 -5.02362 -0.0165772 
389 2 -10.8766 6.64348 -3.49807 -0.57755 
367 2 -10.8766 6.50322 -5.362 -1.5177 
65 1 10.8766 6.65105 -3.41493 -1.82935 
176 1 10.8766 7.97988 -3.41327 -2.59573 
39 1 10.8766 11.625 -6.00353 0.984024 
127 1 10.8766 7.21122 -4.15965 0.647518 
165 1 10.8766 9.3955 -6.84193 -1.18244 
242 2 -10.8766 10.6403 -6.62721 -1.89725 
304 2 -10.8766 8.23761 -6.11998 0.155404 
381 2 -10.8766 9.54582 -4.40224 -1.9348 
383 2 -10.8766 10.0865 -3.00853 -0.561047 
405 2 -10.8766 8.35272 -5.21688 -2.39714 
332 2 -10.8766 11.2335 -3.21894 -1.83849 
1 1 10.8766 15.0838 -6.38634 -0.626216 
287 2 -10.8766 13.5183 -2.6417 1.79463 
391 2 -10.8766 12.7268 -4.07373 1.58942 
207 1 10.8766 14.3645 -3.04274 0.544849 
356 2 -10.8766 12.6828 -6.45039 -1.92649 
358 2 -10.8766 14.7239 -4.16946 -0.372312 
306 2 -10.8766 14.2948 -3.0375 -1.07286 
21 1 10.8766 -14.5558 -1.47991 0.586652 
108 1 10.8766 -14.0691 -0.213472 -1.21761 
133 1 10.8766 -14.563 0.97161 -1.68729 
161 1 10.8766 -13.1253 0.538145 1.64531 
172 1 10.8766 -12.3596 1.46454 -2.43205 
385 2 -10.8766 -14.6653 -2.06701 -1.30538 
420 2 -10.8766 -13.0426 0.515179 -0.554318 
421 2 -10.8766 -12.0422 -1.00351 2.02712 
34 1 10.8766 -12.926 -1.60862 -1.18032 
177 1 10.8766 -12.031 1.51391 2.48245 
40 1 10.8766 -7.55794 -2.17812 -0.936359 
4 1 10.8766 -10.5497 -1.98789 -0.181581 
13 1 10.8766 -10.8783 2.17692 -2.50329 
121 1 10.8766 -6.79614 -0.595094 -1.88933 
129 1 10.8766 -8.23679 0.00833076 0.819962 
139 1 10.8766 -8.10857 1.05155 -0.937107 
204 1 10.8766 -9.27669 2.31578 0.464591 
212 1 10.8766 -10.3245 0.771478 0.86292 
220 2 -10.8766 -9.73415 -0.0376454 -1.88136 
286 2 -10.8766 -7.555 0.212616 2.39465 
321 2 -10.8766 -10.7236 -0.592262 0.962538 
370 2 -10.8766 -9.47278 1.14265 -0.676857 
374 2 -10.8766 -11.5433 2.20717 1.07282 
51 1 10.8766 -4.28666 -0.986298 -0.637763 
109 1 10.8766 -5.44187 1.05042 -0.04521 
143 1 10.8766 -4.32106 1.37214 -1.81844 
234 2 -10.8766 -4.26446 -2.1824 0.496587 
243 2 -10.8766 -3.4367 -0.166137 -2.23462 
254 2 -10.8766 -3.82861 2.23609 -1.16187 
333 2 -10.8766 -6.15112 0.0208766 0.986918 
353 2 -10.8766 -5.44757 -1.08097 -0.184144 
393 2 -10.8766 -4.94917 0.116221 -1.85498 
146 1 10.8766 -5.51645 1.61033 -2.41192 
69 1 10.8766 -5.45301 2.00211 2.21911 
271 2 -10.8766 -3.58097 1.96599 1.60611 
335 2 -10.8766 -1.61016 1.02329 -1.84141 
7 1 10.8766 -0.241926 1.24297 -1.50313 
47 1 10.8766 1.96743 -0.310461 0.457953 
86 1 10.8766 -0.318494 -1.98028 0.0859712 
118 1 10.8766 0.368573 -0.26619 -1.74476 
145 1 10.8766 -1.07986 -0.244536 -0.470232 
379 2 -10.8766 1.51531 -0.749946 -2.31337 
412 2 -10.8766 1.26522 0.852908 0.0228877 
105 1 10.8766 2.0817 0.364021 2.3679 
388 2 -10.8766 -1.29938 0.757253 0.708713 
294 2 -10.8766 4.96525 -2.17788 0.552039 
56 1 10.8766 4.94399 -0.473368 -2.65545 
61 1 10.8766 6.87825 -1.20099 2.37783 
71 1 10.8766 2.62847 2.36167 -1.04297 
101 1 10.8766 3.03994 -0.398006 0.563099 
124 1 10.8766 4.02872 0.22155 -1.36264 
149 1 10.8766 5.27078 -0.214925 -0.301016 
185 1 10.8766 4.56949 1.29552 -0.423055 
293 2 -10.8766 2.62962 -1.9602 -1.10626 
300 2 -10.8766 5.32001 1.82301 2.058 
337 2 -10.8766 5.60007 0.146067 -1.77403 
352 2 -10.8766 3.05911 -0.0457774 -2.3283 
392 2 -10.8766 5.15128 2.29211 -1.32976 
400 2 -10.8766 5.89077 1.48773 0.220187 
64 1 10.8766 6.63403 -1.68879 -1.28043 
206 1 10.8766 6.65729 1.29645 2.05229 
106 1 10.8766 9.03166 0.478456 -0.963167 
180 1 10.8766 11.2208 -1.96075 -2.36734 
181 1 10.8766 6.86624 0.61061 -2.66033 
208 1 10.8766 10.3885 -0.145526 -2.02577 
305 2 -10.8766 7.28437 0.236078 -1.63901 
380 2 -10.8766 7.33091 -1.16184 -2.37007 
395 2 -10.8766 9.21436 -0.293825 0.159342 
378 2 -10.8766 9.83496 1.36496 1.54991 
171 1 10.8766 8.29625 1.81578 -0.161424 
107 1 10.8766 11.6548 -1.15742 0.260343 
83 1 10.8766 11.6075 2.21212 0.0816426 
93 1 10.8766 13.2851 0.755127 0.939564 
110 1 10.8766 12.2217 0.483181 -0.313717 
195 1 10.8766 12.7202 -0.96749 -1.40265 
303 2 -10.8766 14.2676 1.19097 -0.21038 
327 2 -10.8766 14.2706 -1.40531 -1.98824 
414 2 -10.8766 11.9041 0.649694 1.2008 
24 1 10.8766 -12.249 4.02684 -0.705459 
46 1 10.8766 -14.4628 3.66307 1.60836 
62 1 10.8766 -13.9018 5.00185 0.00758115 
150 1 10.8766 -13.4602 5.5026 1.48282 
157 1 10.8766 -13.9645 3.0848 -1.84879 
201 1 10.8766 -11.774 5.43577 -2.63997 
255 2 -10.8766 -13.6113 6.09488 -0.720083 
288 2 -10.8766 -14.8999 3.57708 -0.395832 
397 2 -10.8766 -13.153 4.37474 -2.1759 
68 1 10.8766 -11.7043 4.45949 -1.48983 
360 2 -10.8766 -12.307 6.76067 0.245918 
57 1 10.8766 -10.5758 6.33344 0.234981 
160 1 10.8766 -10.0265 5.5962 -0.663889 
261 2 -10.8766 -8.38896 3.53969 -0.111659 
277 2 -10.8766 -9.75565 4.17604 0.679276 
347 2 -10.8766 -9.27929 3.97295 -2.29127 
354 2 -10.8766 -11.3413 5.57751 -1.26421 
342 2 -10.8766 -8.94687 5.81501 -2.20362 
215 2 -10.8766 -6.22124 2.93238 -1.03331 
36 1 10.8766 -6.40234 4.31962 -0.45541 
281 2 -10.8766 -4.98904 4.40073 2.22618 
23 1 10.8766 -2.56484 2.69066 -0.306186 
84 1 10.8766 -4.63791 5.80762 -2.47836 
99 1 10.8766 -5.70013 4.07371 -2.10425 
199 1 10.8766 -4.40278 5.28554 1.25055 
216 2 -10.8766 -4.49272 2.83561 0.195934 
264 2 -10.8766 -3.62987 3.97925 0.0671167 
295 2 -10.8766 -2.72043 3.39908 -1.38001 