ITEM: TIMESTEP
1000
ITEM: NUMBER OF ATOMS
424
ITEM: BOX BOUNDS pp pp ff
-1.6160100000000000e+01 1.6160100000000000e+01
-1.6160100000000000e+01 1.6160100000000000e+01
-3.1646600000000000e+00 3.1646600000000000e+00
ITEM: ATOMS id type q x y z 
183 1 10.8766 -15.0753 -11.5919 0.754501 
259 2 -10.8766 -13.4058 -12.9569 -0.247368 
265 2 -10.8766 -14.5489 -13.1959 0.835529 
307 2 -10.8766 -12.1487 -11.9851 -1.53335 
399 2 -10.8766 -12.4171 -15.4616 0.789569 
11 1 10.8766 -11.8844 -11.5561 0.0218306 
253 2 -10.8766 -13.9532 -12.0238 -1.97673 
232 2 -10.8766 -10.9634 -12.7394 1.83387 
63 1 10.8766 -9.31502 -16.0392 0.58186 
225 2 -10.8766 -9.50792 -11.7516 0.898194 
74 1 10.8766 -5.38011 -13.8823 0.308921 
141 1 10.8766 -2.95583 -13.9739 0.80631 
188 1 10.8766 -3.09068 -13.047 -1.09706 
285 2 -10.8766 -3.82724 -14.5449 -0.796743 
417 2 -10.8766 -4.18736 -15.8356 2.36824 
213 2 -10.8766 -2.83075 -12.2276 0.517747 
283 2 -10.8766 -6.09314 -12.8676 1.65693 
20 1 10.8766 -1.87214 -12.9013 -2.18621 
70 1 10.8766 0.858418 -14.9815 -1.39238 
80 1 10.8766 -0.361485 -15.0037 1.6128 
228 2 -10.8766 -0.382291 -12.1091 -1.9784 
231 2 -10.8766 0.766635 -12.3234 -0.930999 
315 2 -10.8766 1.80781 -14.1364 -0.124874 
320 2 -10.8766 -1.51953 -12.3289 2.49988 
66 1 10.8766 0.900395 -12.2036 0.615556 
290 2 -10.8766 3.79186 -13.2724 -1.49655 
30 1 10.8766 5.86633 -13.6685 -2.43466 
38 1 10.8766 2.92522 -14.5571 -0.51996 
72 1 10.8766 4.70173 -15.8586 -2.1506 
103 1 10.8766 6.74105 -15.8306 -0.221908 
119 1 10.8766 5.15576 -14.8894 0.951065 
182 1 10.8766 5.24483 -13.1925 0.735325 
236 2 -10.8766 5.51347 -16.0798 -0.597682 
248 2 -10.8766 3.35371 -15.4316 -1.90903 
345 2 -10.8766 5.41854 -14.9296 -1.64233 
280 2 -10.8766 6.43731 -12.181 -2.08882 
10 1 10.8766 7.36028 -13.7026 1.16079 
45 1 10.8766 11.0423 -15.004 -0.61607 
76 1 10.8766 8.60725 -13.4523 -2.35927 
125 1 10.8766 7.92849 -15.0114 1.79311 
298 2 -10.8766 9.45046 -14.7353 -1.43609 
319 2 -10.8766 7.7645 -13.0011 -1.74904 
350 2 -10.8766 9.22856 -13.092 0.849588 
178 1 10.8766 10.2342 -11.7271 -1.90514 
296 2 -10.8766 11.6751 -15.8642 0.095732 
120 1 10.8766 11.6885 -13.8062 -0.305188 
151 1 10.8766 14.2986 -11.9183 -1.63404 
240 2 -10.8766 12.0676 -11.5856 -0.356097 
251 2 -10.8766 13.8177 -13.8041 -1.27168 
338 2 -10.8766 12.8769 -14.5742 1.13472 
316 2 -10.8766 16.0623 -11.8202 -1.2248 
112 1 10.8766 -12.5134 -9.21839 -0.709697 
115 1 10.8766 -13.0167 -10.1168 1.53418 
205 1 10.8766 -14.6932 -10.7403 1.99262 
210 1 10.8766 -12.1675 -9.85135 -1.58268 
312 2 -10.8766 -13.6951 -8.62059 0.0638007 
377 2 -10.8766 -13.9758 -9.13706 -2.44522 
26 1 10.8766 -15.16 -7.6125 -1.91478 
50 1 10.8766 -12.438 -8.30192 -2.61334 
235 2 -10.8766 -12.3591 -8.06767 -0.92604 
329 2 -10.8766 -9.62458 -11.2531 -2.44974 
407 2 -10.8766 -11.5015 -9.44872 0.758853 
5 1 10.8766 -9.18478 -8.9086 -2.13059 
37 1 10.8766 -8.46606 -9.77132 0.541884 
54 1 10.8766 -10.7954 -7.35728 -2.32025 
131 1 10.8766 -8.32922 -9.40504 -0.675436 
247 2 -10.8766 -10.1941 -9.34165 1.18213 
371 2 -10.8766 -10.4563 -10.0694 -1.6171 
396 2 -10.8766 -7.75507 -10.1706 -1.9673 
32 1 10.8766 -7.19848 -8.84339 -2.08327 
12 1 10.8766 -9.14317 -7.79535 -1.67477 
187 1 10.8766 -9.62643 -8.11195 -0.169814 
8 1 10.8766 -6.51495 -10.6775 -1.25748 
238 2 -10.8766 -6.19418 -8.7891 -0.784441 
18 1 10.8766 -5.41421 -9.45812 0.112606 
42 1 10.8766 -4.1223 -7.47738 0.0612397 
130 1 10.8766 -2.86495 -10.5486 0.0237651 
179 1 10.8766 -3.88874 -8.90793 0.427973 
211 1 10.8766 -4.82873 -9.32744 -1.63699 
363 2 -10.8766 -5.07679 -11.4372 -2.4147 
413 2 -10.8766 -5.04446 -11.032 -0.340114 
190 1 10.8766 -2.39557 -8.99032 0.18322 
297 2 -10.8766 -2.54976 -10.2638 1.84398 
221 2 -10.8766 -1.98647 -11.1967 -1.78739 
15 1 10.8766 -0.726191 -10.3611 0.600223 
227 2 -10.8766 -0.910154 -8.37185 -0.746639 
314 2 -10.8766 -0.289433 -8.42989 -1.97881 
325 2 -10.8766 -0.521247 -11.2835 -0.373812 
348 2 -10.8766 -1.38562 -9.06283 1.02474 
364 2 -10.8766 1.3118 -9.50637 0.681632 
168 1 10.8766 2.8806 -9.01649 1.33929 
16 1 10.8766 5.19635 -10.8388 -1.08046 
67 1 10.8766 2.35588 -11.1517 -0.00163451 
148 1 10.8766 5.70957 -8.58961 -0.957337 
170 1 10.8766 3.46081 -9.61915 -0.331411 
174 1 10.8766 3.6297 -9.51942 -2.49507 
387 2 -10.8766 3.56406 -10.2727 1.74631 
299 2 -10.8766 4.89652 -7.69205 -0.382344 
279 2 -10.8766 9.66476 -10.6487 -1.40424 
263 2 -10.8766 7.38185 -9.91232 -1.17397 
52 1 10.8766 10.5332 -9.55783 -1.17787 
137 1 10.8766 11.1514 -8.0268 -2.44219 
155 1 10.8766 9.84756 -8.26304 -1.26252 
403 2 -10.8766 7.9512 -8.24302 0.828679 
411 2 -10.8766 9.09146 -11.16 0.482784 
156 1 10.8766 11.2548 -9.5526 -0.251585 
193 1 10.8766 8.26002 -7.32969 1.38187 
35 1 10.8766 13.2263 -9.83341 0.649379 
87 1 10.8766 14.1621 -7.80208 -2.3615 
126 1 10.8766 13.3818 -8.14591 -0.859523 
196 1 10.8766 13.4649 -10.6096 -2.27839 
219 2 -10.8766 12.5505 -10.4886 -1.29401 
323 2 -10.8766 14.9758 -10.1081 -2.43871 
339 2 -10.8766 12.0172 -8.0572 -0.80852 
95 1 10.8766 -14.4735 -6.1245 2.59395 
289 2 -10.8766 -15.8141 -6.22001 0.405213 
17 1 10.8766 -15.5899 -4.64444 1.22339 
122 1 10.8766 -14.4341 -4.51884 -1.25236 
134 1 10.8766 -12.3284 -6.59258 -0.403839 
175 1 10.8766 -15.9571 -2.40297 -0.396658 
262 2 -10.8766 -11.9605 -3.66704 0.683411 
390 2 -10.8766 -12.5785 -5.19381 -0.765142 
394 2 -10.8766 -14.5304 -2.64272 1.35807 
75 1 10.8766 -11.7026 -2.40016 -1.07151 
135 1 10.8766 -12.3511 -2.31504 2.47622 
424 2 -10.8766 -7.69466 -5.50035 -1.82035 
113 1 10.8766 -11.0873 -5.03344 1.66745 
27 1 10.8766 -7.09843 -4.1967 1.43176 
136 1 10.8766 -8.95544 -4.64373 0.463096 
194 1 10.8766 -7.33833 -5.29145 0.274427 
203 1 10.8766 -7.1863 -4.42865 -2.39 
291 2 -10.8766 -10.5261 -2.81315 1.23058 
355 2 -10.8766 -11.0686 -5.76663 -2.33283 
359 2 -10.8766 -10.8444 -3.57073 -2.36965 
422 2 -10.8766 -8.54355 -6.84366 0.0829263 
192 1 10.8766 -8.88878 -3.1636 -1.45088 
48 1 10.8766 -4.35965 -4.14474 0.378144 
111 1 10.8766 -6.53695 -5.52333 -1.12817 
274 2 -10.8766 -4.49493 -4.43629 -1.75731 
322 2 -10.8766 -4.02377 -3.66909 2.3325 
346 2 -10.8766 -6.1078 -2.45775 -0.544095 
368 2 -10.8766 -6.17323 -4.34486 -0.478961 
369 2 -10.8766 -3.10928 -2.48977 -1.87129 
401 2 -10.8766 -4.88099 -5.77702 -0.727256 
402 2 -10.8766 -2.92293 -4.28435 -0.156177 
186 1 10.8766 -6.36074 -2.6674 2.23418 
102 1 10.8766 -1.93302 -6.77451 -1.66665 
270 2 -10.8766 1.59064 -6.62496 1.78789 
311 2 -10.8766 1.74105 -6.6247 -0.686458 
44 1 10.8766 -2.03416 -3.93478 -2.47166 
344 2 -10.8766 -0.900886 -4.98416 -1.926 
49 1 10.8766 1.67045 -2.74575 -1.9279 
144 1 10.8766 -0.0678824 -6.65359 0.9967 
167 1 10.8766 -2.01246 -3.3691 -1.14588 
173 1 10.8766 -0.590562 -3.89886 -1.71627 
260 2 -10.8766 1.3478 -3.92079 -0.435893 
341 2 -10.8766 -0.836142 -2.79997 -0.764214 
365 2 -10.8766 4.43153 -6.16208 -1.36328 
142 1 10.8766 5.82482 -5.81844 0.703995 
159 1 10.8766 6.91438 -2.60438 0.330466 
209 1 10.8766 3.48893 -5.51153 1.75246 
250 2 -10.8766 3.17454 -4.40723 -2.13003 
267 2 -10.8766 3.79309 -4.00472 1.70074 
357 2 -10.8766 3.73936 -4.93225 -0.102152 
389 2 -10.8766 6.51594 -3.57361 -0.576007 
367 2 -10.8766 6.6082 -5.34252 -1.46107 
65 1 10.8766 6.82071 -3.27972 -1.84808 
176 1 10.8766 7.89353 -3.45942 -2.6429 
39 1 10.8766 11.4988 -6.09376 0.955781 
127 1 10.8766 7.24653 -4.21747 0.536282 
165 1 10.8766 9.3322 -6.85368 -1.27927 
242 2 -10.8766 10.6696 -6.48378 -1.86197 
304 2 -10.8766 8.36764 -5.99458 0.0960491 
381 2 -10.8766 9.65568 -4.3017 -1.78693 
383 2 -10.8766 10.0332 -3.04887 -0.448887 
405 2 -10.8766 8.40298 -5.06362 -2.37512 
332 2 -10.8766 11.2588 -3.17909 -1.83265 
1 1 10.8766 14.9684 -6.58041 -0.59108 
287 2 -10.8766 13.2988 -2.52685 1.68106 
391 2 -10.8766 12.5996 -4.06419 1.44296 
207 1 10.8766 14.3056 -3.15813 0.472471 
356 2 -10.8766 12.7845 -6.25653 -1.99094 
358 2 -10.8766 14.6184 -4.27256 -0.391806 
306 2 -10.8766 14.1438 -2.88425 -1.17949 
21 1 10.8766 -14.3605 -1.5727 0.5492 
108 1 10.8766 -14.0574 -0.17404 -1.26512 
133 1 10.8766 -14.4794 0.854203 -1.58264 
161 1 10.8766 -13.1915 0.584724 1.53318 
172 1 10.8766 -12.4293 1.47903 -2.45885 
385 2 -10.8766 -14.7074 -2.02705 -1.10283 
420 2 -10.8766 -13.129 0.706846 -0.540899 
421 2 -10.8766 -12.2451 -0.948149 1.95122 
34 1 10.8766 -12.7783 -1.51681 -1.12486 
177 1 10.8766 -11.9735 1.61712 2.3231 
40 1 10.8766 -7.62191 -2.21821 -0.766526 
4 1 10.8766 -10.5893 -1.85995 -0.174453 
13 1 10.8766 -10.9597 2.09024 -2.43928 
121 1 10.8766 -7.01384 -0.50454 -1.80779 
129 1 10.8766 -8.06899 0.0319888 0.672857 
139 1 10.8766 -8.05491 0.975196 -0.901379 
204 1 10.8766 -9.21102 2.22121 0.336902 
212 1 10.8766 -10.2711 0.827152 0.664037 
220 2 -10.8766 -9.76147 0.188667 -1.75881 
286 2 -10.8766 -7.47015 0.189811 2.25203 
321 2 -10.8766 -10.7695 -0.576448 0.956219 
370 2 -10.8766 -9.49185 1.08773 -0.69196 
374 2 -10.8766 -11.376 2.25315 1.08316 
51 1 10.8766 -4.27357 -1.01785 -0.785039 
109 1 10.8766 -5.50954 1.01543 -0.071817 
143 1 10.8766 -4.45965 1.43929 -1.80565 
234 2 -10.8766 -4.26746 -2.14943 0.479268 
243 2 -10.8766 -3.37313 -0.0331287 -2.14035 
254 2 -10.8766 -3.90788 2.28981 -1.10399 
333 2 -10.8766 -6.14461 0.124315 0.836801 
353 2 -10.8766 -5.42064 -0.987158 -0.17865 
393 2 -10.8766 -4.79224 0.0813026 -1.71961 
146 1 10.8766 -5.671 1.68367 -2.4716 
69 1 10.8766 -5.31624 2.06872 2.11115 
271 2 -10.8766 -3.46731 2.0589 1.47374 
335 2 -10.8766 -1.57221 0.916873 -1.68984 
7 1 10.8766 -0.392866 1.1785 -1.45831 
47 1 10.8766 1.9694 -0.314431 0.494439 
86 1 10.8766 -0.452001 -1.82395 0.00861588 
118 1 10.8766 0.456893 -0.214218 -1.63642 
145 1 10.8766 -1.02962 -0.0387821 -0.442912 
379 2 -10.8766 1.38502 -0.770563 -2.43959 
412 2 -10.8766 1.33187 0.788567 0.0126087 
105 1 10.8766 2.13893 0.301661 2.58125 
388 2 -10.8766 -1.31152 0.904197 0.584549 
294 2 -10.8766 4.866 -2.29544 0.526145 
56 1 10.8766 4.96731 -0.360377 -2.57795 
61 1 10.8766 6.79712 -1.1921 2.18956 
71 1 10.8766 2.69467 2.17463 -0.987558 
101 1 10.8766 3.00869 -0.42168 0.538246 
124 1 10.8766 4.13301 0.230456 -1.40644 
149 1 10.8766 5.20861 -0.261487 -0.415527 
185 1 10.8766 4.52325 1.13351 -0.517944 
293 2 -10.8766 2.77374 -2.06502 -1.02093 
300 2 -10.8766 5.21389 1.81986 1.96209 
337 2 -10.8766 5.61879 0.199149 -1.69604 
352 2 -10.8766 3.11569 0.0930807 -2.38296 
392 2 -10.8766 5.25159 2.09971 -1.401 
400 2 -10.8766 5.7888 1.32073 0.128383 
64 1 10.8766 6.72725 -1.63776 -1.36641 
206 1 10.8766 6.74698 1.26281 1.96032 
106 1 10.8766 9.12975 0.489976 -0.915681 
180 1 10.8766 11.3357 -1.9223 -2.30686 
181 1 10.8766 6.94233 0.587998 -2.59381 
208 1 10.8766 10.2212 -0.172309 -2.14166 
305 2 -10.8766 7.46872 0.0395214 -1.60706 
380 2 -10.8766 7.19998 -1.13874 -2.43859 
395 2 -10.8766 9.36408 -0.26743 0.266635 
378 2 -10.8766 10.0391 1.28753 1.43043 
171 1 10.8766 8.16055 1.83611 -0.148295 
107 1 10.8766 11.6463 -1.14337 0.106818 
83 1 10.8766 11.8191 2.12072 0.182103 
93 1 10.8766 13.3085 0.702553 0.879176 
110 1 10.8766 12.2452 0.360851 -0.33824 
195 1 10.8766 12.7451 -1.00872 -1.24854 
303 2 -10.8766 14.1806 1.28186 -0.270561 
327 2 -10.8766 14.2011 -1.30785 -1.921 
414 2 -10.8766 11.9113 0.486878 1.09779 
24 1 10.8766 -12.3455 3.93186 -0.704664 
46 1 10.8766 -14.4643 3.67331 1.54894 
62 1 10.8766 -13.8105 4.9831 -0.0449879 
150 1 10.8766 -13.4908 5.55399 1.28647 
157 1 10.8766 -13.7105 2.97563 -1.79784 
201 1 10.8766 -11.797 5.45463 -2.55179 
255 2 -10.8766 -13.4899 6.04212 -0.767419 
288 2 -10.8766 -14.8943 3.67554 -0.488257 
397 2 -10.8766 -13.225 4.54719 -2.127 
68 1 10.8766 -11.6544 4.40928 -1.35813 
360 2 -10.8766 -12.6634 6.63199 0.238087 
57 1 10.8766 -10.6206 6.22188 0.312945 
160 1 10.8766 -10.0871 5.38224 -0.657789 
261 2 -10.8766 -8.33046 3.50077 -0.130076 
277 2 -10.8766 -9.5739 4.37644 0.496096 
347 2 -10.8766 -9.35165 4.16774 -2.36489 
354 2 -10.8766 -11.45 5.72835 -1.22137 
342 2 -10.8766 -9.02944 5.90778 -2.16434 
215 2 -10.8766 -6.27773 2.88816 -0.922247 
36 1 10.8766 -6.53144 4.07558 -0.457431 
281 2 -10.8766 -5.19025 4.58218 2.12396 
23 1 10.8766 -2.70601 2.73534 -0.390542 
84 1 10.8766 -4.60268 5.66541 -2.45362 
99 1 10.8766 -5.63364 4.00884 -2.27202 
199 1 10.8766 -4.4929 5.28626 1.11624 
216 2 -10.8766 -4.60353 2.85308 0.0231882 
264 2 -10.8766 -3.59212 4.10873 0.00197044 
295 2 -10.8766 -2.73489 3.44268 -1.50208 
349 2 -10.8766 -3.42919 6.16767 -2.05932 
386 2 -10.8766 -5.2056 6.76308 -0.131431 
88 1 10.8766 -2.9889 4.77099 0.902657 
158 1 10.8766 2.02097 2.66822 2.47546 
416 2 -10.8766 1.12875 3.65984 1.18317 
324 2 -10.8766 -1.94108 5.98574 0.393733 
154 1 10.8766 -1.41589 4.00406 -0.773837 
166 1 10.8766 0.422574 6.06833 -0.691465 
252 2 -10.8766 0.32533 5.84163 1.13152 
239 2 -10.8766 1.53715 2.69453 -1.32424 
60 1 10.8766 4.63901 3.36723 -0.168921 
128 1 10.8766 6.84038 2.42238 -2.49202 
19 1 10.8766 5.70982 6.58061 0.589421 
28 1 10.8766 2.52183 4.15567 -0.308924 
33 1 10.8766 5.22267 6.9057 -1.25482 
96 1 10.8766 4.03182 4.81148 -2.09252 
114 1 10.8766 6.67504 4.76768 -0.866796 
153 1 10.8766 5.10342 5.28645 1.35474 
310 2 -10.8766 3.14109 6.54972 -0.314862 
331 2 -10.8766 6.52568 3.17556 -0.294616 
91 1 10.8766 9.6501 2.41653 -1.70773 
229 2 -10.8766 7.37375 5.5723 0.175084 
41 1 10.8766 9.47742 4.05413 -2.14057 
94 1 10.8766 9.07766 5.40083 -0.934879 
258 2 -10.8766 7.72771 5.30602 -2.1054 
284 2 -10.8766 8.02843 3.01776 -0.667266 
301 2 -10.8766 10.8694 4.80307 -0.925419 
419 2 -10.8766 9.78631 3.26538 -0.591962 
326 2 -10.8766 12.2946 2.45211 -1.65852 
233 2 -10.8766 11.7721 5.14543 2.45393 
237 2 -10.8766 13.7039 6.09723 -2.42442 
318 2 -10.8766 13.0901 4.25668 -0.779917 
98 1 10.8766 11.611 6.67435 1.20889 
79 1 10.8766 -14.7745 8.07459 -2.14335 
200 1 10.8766 -14.0668 7.02214 -1.31983 
31 1 10.8766 -14.318 8.10124 -0.763539 
43 1 10.8766 -13.4657 7.75133 1.41433 
73 1 10.8766 -12.5642 8.54076 -0.574599 
89 1 10.8766 -13.5666 10.8609 -2.48839 
132 1 10.8766 -12.2949 7.09797 -1.85917 
202 1 10.8766 -15.1826 8.98748 -0.762294 
218 2 -10.8766 -14.782 9.12764 1.05954 
292 2 -10.8766 -13.712 10.0216 -0.988607 
410 2 -10.8766 -13.1102 8.07791 -2.32005 
152 1 10.8766 -7.67482 7.49984 1.40481 
169 1 10.8766 -11.1487 9.6362 -2.60695 
226 2 -10.8766 -8.498 7.95614 0.0277969 
256 2 -10.8766 -10.7831 10.622 -0.68035 
272 2 -10.8766 -9.8107 9.80935 1.07235 
278 2 -10.8766 -8.76726 9.95479 -0.013448 
308 2 -10.8766 -11.3882 8.28029 -0.375072 
406 2 -10.8766 -7.92978 8.17476 -1.6735 
14 1 10.8766 -7.53943 10.6119 -0.486517 
162 1 10.8766 -6.86546 9.17491 -1.11145 
222 2 -10.8766 -6.37795 11.3338 -2.09001 
3 1 10.8766 -6.02425 11.0367 1.50267 
22 1 10.8766 -2.75426 8.44059 0.597209 
55 1 10.8766 -3.71556 7.61083 -0.331694 
104 1 10.8766 -4.45939 8.07747 0.309904 
191 1 10.8766 -6.69428 7.59509 -1.44757 
245 2 -10.8766 -6.31081 10.2618 -0.42803 
249 2 -10.8766 -2.36139 8.0445 -0.501632 
313 2 -10.8766 -2.70861 8.48576 -2.31658 
351 2 -10.8766 -3.8053 10.1311 -1.80315 
138 1 10.8766 -4.2622 10.9339 0.514594 
29 1 10.8766 1.88354 7.09711 2.42842 
25 1 10.8766 -0.590256 7.0887 -2.31584 
197 1 10.8766 -1.9897 9.78744 -2.29691 
224 2 -10.8766 -0.342574 9.52561 -1.0176 
340 2 -10.8766 -1.11265 8.33618 -1.70867 
375 2 -10.8766 -0.16729 7.8258 -0.206887 
164 1 10.8766 -1.38185 11.3771 1.38691 
82 1 10.8766 2.58992 7.30967 -2.25619 
9 1 10.8766 3.83556 8.0312 1.80806 
77 1 10.8766 3.74785 10.8576 -1.13223 
223 2 -10.8766 3.32586 7.02106 1.23268 
230 2 -10.8766 6.76533 11.4267 -1.79817 
276 2 -10.8766 3.20277 9.65524 2.28269 
328 2 -10.8766 3.3561 11.4288 -0.0944187 
334 2 -10.8766 4.68445 8.89915 -2.30821 
361 2 -10.8766 6.45376 8.47798 -2.28362 
409 2 -10.8766 6.54683 9.64163 -0.27788 
423 2 -10.8766 5.79804 10.8705 1.11351 
2 1 10.8766 6.85455 8.4888 -0.462385 
184 1 10.8766 9.44614 7.45006 -0.262192 
81 1 10.8766 9.97633 9.67985 -0.577063 
116 1 10.8766 7.29195 10.04 -1.44683 
302 2 -10.8766 10.8375 6.93915 -1.73144 
309 2 -10.8766 8.47858 7.99177 -2.19064 
376 2 -10.8766 7.38875 9.0414 2.34933 
382 2 -10.8766 8.66434 8.93554 0.646555 
415 2 -10.8766 10.3486 9.61865 -1.81921 
78 1 10.8766 11.3537 10.2002 -1.11674 
384 2 -10.8766 10.3845 8.84548 0.232077 
408 2 -10.8766 13.3608 7.14062 1.17546 
163 1 10.8766 15.4645 10.1203 1.15039 
97 1 10.8766 12.0289 8.83754 -2.36316 
100 1 10.8766 13.9639 10.7977 -0.590836 
273 2 -10.8766 13.8271 9.5825 -0.366378 
275 2 -10.8766 12.9211 11.0511 2.31259 
282 2 -10.8766 14.2743 7.34931 -1.2069 
90 1 10.8766 -12.5327 11.9162 -0.332746 
92 1 10.8766 -15.5118 11.7323 -2.0379 
140 1 10.8766 -14.061 14.2822 -1.83191 
189 1 10.8766 -13.1925 15.2351 1.03602 
244 2 -10.8766 -12.2461 12.2482 1.84612 
268 2 -10.8766 -15.8893 12.8732 0.747637 
372 2 -10.8766 -13.4119 12.3557 -2.2214 
53 1 10.8766 -11.857 14.6573 -0.337221 
217 2 -10.8766 -11.574 11.6336 -1.81902 
85 1 10.8766 -9.88536 11.903 1.14335 
257 2 -10.8766 -8.79269 11.9236 -2.28774 
404 2 -10.8766 -10.2719 13.1459 -1.00065 
418 2 -10.8766 -5.87942 16.0913 0.195025 
198 1 10.8766 -2.89319 15.8073 -0.187483 
317 2 -10.8766 -6.70767 12.118 1.92604 
336 2 -10.8766 -4.44729 12.6127 -0.456068 
362 2 -10.8766 -2.13077 12.4496 -0.431344 
147 1 10.8766 -1.96738 14.1456 1.76735 
330 2 -10.8766 2.18415 12.5157 -0.270068 
366 2 -10.8766 -0.844627 15.3652 0.477316 
6 1 10.8766 3.24453 13.906 -0.587423 
58 1 10.8766 4.29093 12.3971 0.700999 
117 1 10.8766 6.08254 12.6126 -2.25307 
266 2 -10.8766 6.16774 14.7198 -1.69218 
343 2 -10.8766 3.86433 13.7153 -1.5285 
269 2 -10.8766 7.68536 12.3104 -0.893674 
59 1 10.8766 8.27242 12.3723 0.78313 
123 1 10.8766 9.66246 14.6489 -0.601198 
246 2 -10.8766 9.42798 12.4764 0.308005 
398 2 -10.8766 8.99094 14.4486 -1.73661 
214 2 -10.8766 11.5459 11.9686 -0.684796 
241 2 -10.8766 13.5177 11.9969 -1.12691 
373 2 -10.8766 13.7244 11.763 0.804103 
ITEM: TIMESTEP
1100
ITEM: NUMBER OF ATOMS
424
ITEM: BOX BOUNDS pp pp ff
-1.6160100000000000e+01 1.6160100000000000e+01
-1.6160100000000000e+01 1.6160100000000000e+01
-3.1646600000000000e+00 3.1646600000000000e+00
ITEM: ATOMS id type q x y z 
183 1 10.8766 -15.1194 -11.5639 0.705461 
259 2 -10.8766 -13.4333 -12.9908 -0.330311 
265 2 -10.8766 -14.6385 -13.0352 0.910945 
307 2 -10.8766 -12.1097 -11.9314 -1.57162 
399 2 -10.8766 -12.5157 -15.5912 0.889019 
11 1 10.8766 -11.8419 -11.6362 -0.00301234 
253 2 -10.8766 -13.9567 -12.169 -1.96889 
232 2 -10.8766 -10.917 -12.719 2.07778 
63 1 10.8766 -9.37802 -16.0925 0.638952 
225 2 -10.8766 -9.36705 -11.6456 0.965595 
74 1 10.8766 -5.45861 -13.9967 0.482582 
141 1 10.8766 -2.78845 -14.04 0.831049 
188 1 10.8766 -2.97324 -13.1341 -1.07559 
285 2 -10.8766 -3.84555 -14.4068 -0.810047 
417 2 -10.8766 -4.09888 -15.9405 2.49275 
213 2 -10.8766 -2.98503 -12.253 0.715443 
283 2 -10.8766 -5.91365 -12.9834 1.76526 
20 1 10.8766 -1.99426 -12.8929 -2.2878 
70 1 10.8766 0.799859 -14.9699 -1.3669 
80 1 10.8766 -0.428476 -15.0129 1.68165 
228 2 -10.8766 -0.460459 -12.0808 -1.85048 
231 2 -10.8766 0.97161 -12.4245 -1.00629 
315 2 -10.8766 1.73063 -14.1196 0.00325739 
320 2 -10.8766 -1.6376 -12.2347 2.42345 
66 1 10.8766 0.688206 -12.2881 0.729271 
290 2 -10.8766 3.98805 -13.2013 -1.43635 
30 1 10.8766 5.8775 -13.7545 -2.49455 
38 1 10.8766 2.73473 -14.5681 -0.589205 
72 1 10.8766 4.8321 -16.0017 -2.07754 
103 1 10.8766 6.79152 -16.0739 -0.207992 
119 1 10.8766 5.2756 -14.9354 0.952612 
182 1 10.8766 5.29681 -13.1961 0.68834 
236 2 -10.8766 5.46749 -16.1087 -0.532582 
248 2 -10.8766 3.42545 -15.5119 -2.03851 
345 2 -10.8766 5.26588 -14.9874 -1.67067 
280 2 -10.8766 6.26458 -12.1584 -2.27699 
10 1 10.8766 7.47334 -13.7981 1.16034 
45 1 10.8766 10.9916 -14.9828 -0.506652 
76 1 10.8766 8.5936 -13.3741 -2.41151 
125 1 10.8766 7.89797 -15.1045 1.86669 
298 2 -10.8766 9.4693 -14.874 -1.35654 
319 2 -10.8766 7.66377 -12.9419 -1.64336 
350 2 -10.8766 9.217 -13.1162 0.864495 
178 1 10.8766 10.1524 -11.8511 -1.80703 
296 2 -10.8766 11.681 -15.9805 0.0624345 
120 1 10.8766 11.6522 -13.8899 -0.246509 
151 1 10.8766 14.4525 -11.9269 -1.72703 
240 2 -10.8766 12.063 -11.4177 -0.256056 
251 2 -10.8766 13.9053 -13.8853 -1.27719 
338 2 -10.8766 12.9277 -14.5742 1.18484 
316 2 -10.8766 15.9457 -11.8758 -1.1311 
112 1 10.8766 -12.5421 -9.30389 -0.741896 
115 1 10.8766 -13.0551 -10.2333 1.68276 
205 1 10.8766 -14.6263 -10.8605 2.1065 
210 1 10.8766 -12.0459 -9.98829 -1.37751 
312 2 -10.8766 -13.6356 -8.44282 0.206753 
377 2 -10.8766 -13.8816 -8.99211 -2.46226 
26 1 10.8766 -15.2644 -7.80916 -1.76252 
50 1 10.8766 -12.3909 -8.49524 -2.61488 
235 2 -10.8766 -12.228 -8.12013 -0.978256 
329 2 -10.8766 -9.72189 -11.1208 -2.36653 
407 2 -10.8766 -11.6834 -9.38861 0.748938 
5 1 10.8766 -9.38504 -8.8627 -2.14564 
37 1 10.8766 -8.35414 -9.8562 0.602516 
54 1 10.8766 -10.7686 -7.33437 -2.51217 
131 1 10.8766 -8.36082 -9.3457 -0.595941 
247 2 -10.8766 -10.2048 -9.25465 1.33333 
371 2 -10.8766 -10.3942 -10.0318 -1.68019 
396 2 -10.8766 -7.54198 -10.2491 -1.91921 
32 1 10.8766 -7.33744 -8.77413 -1.93987 
12 1 10.8766 -9.17357 -7.76309 -1.61459 
187 1 10.8766 -9.63054 -8.32674 -0.0842041 
8 1 10.8766 -6.6239 -10.5985 -1.27236 
238 2 -10.8766 -6.18501 -8.84739 -0.829283 
18 1 10.8766 -5.56246 -9.4181 0.154596 
42 1 10.8766 -3.96499 -7.25556 0.160712 
130 1 10.8766 -2.93392 -10.6749 0.0233895 
179 1 10.8766 -3.9412 -9.00839 0.530886 
211 1 10.8766 -4.8406 -9.40243 -1.65888 
363 2 -10.8766 -5.12263 -11.4909 -2.48646 
413 2 -10.8766 -4.9397 -10.9767 -0.303442 
190 1 10.8766 -2.45985 -9.12623 0.301896 
297 2 -10.8766 -2.7583 -10.2337 1.96167 
221 2 -10.8766 -1.93607 -11.1302 -1.90251 
15 1 10.8766 -0.479115 -10.33 0.746289 
227 2 -10.8766 -0.964763 -8.30026 -0.559095 
314 2 -10.8766 -0.359748 -8.38034 -1.93986 
325 2 -10.8766 -0.548566 -11.2883 -0.310933 
348 2 -10.8766 -1.4902 -9.11912 1.03171 
364 2 -10.8766 1.31493 -9.48512 0.794541 
168 1 10.8766 2.90344 -9.02184 1.37984 
16 1 10.8766 5.1614 -10.8953 -1.16716 
67 1 10.8766 2.18645 -11.1097 -0.068234 
148 1 10.8766 5.79278 -8.50146 -1.024 
170 1 10.8766 3.30952 -9.71181 -0.366451 
174 1 10.8766 3.5686 -9.50895 -2.34039 
387 2 -10.8766 3.59113 -10.3282 1.81387 
299 2 -10.8766 4.78223 -7.84992 -0.332449 
279 2 -10.8766 9.57504 -10.4982 -1.47693 
263 2 -10.8766 7.44036 -10.0056 -1.00707 
52 1 10.8766 10.5706 -9.63867 -1.12104 
137 1 10.8766 11.2753 -7.76625 -2.52642 
155 1 10.8766 9.79537 -8.16056 -1.31588 
403 2 -10.8766 7.96717 -8.27485 0.789168 
411 2 -10.8766 9.15149 -11.1149 0.431192 
156 1 10.8766 11.148 -9.51836 -0.162939 
193 1 10.8766 8.46836 -7.28643 1.52266 
35 1 10.8766 13.307 -9.85359 0.640866 
87 1 10.8766 14.2037 -7.77787 -2.32496 
126 1 10.8766 13.4487 -8.1504 -0.800932 
196 1 10.8766 13.5547 -10.8257 -2.37816 
219 2 -10.8766 12.6711 -10.4914 -1.34254 
323 2 -10.8766 15.1105 -10.1946 -2.40356 
339 2 -10.8766 11.9634 -8.08413 -0.931765 
95 1 10.8766 -14.5291 -5.98808 2.64134 
289 2 -10.8766 -15.9443 -6.12045 0.467794 
17 1 10.8766 -15.7477 -4.511 1.3416 
122 1 10.8766 -14.5997 -4.62462 -1.1457 
134 1 10.8766 -12.3071 -6.59134 -0.478339 
175 1 10.8766 -16.0727 -2.22728 -0.353225 
262 2 -10.8766 -11.9308 -3.77779 0.615761 
390 2 -10.8766 -12.4622 -5.2994 -0.943591 
394 2 -10.8766 -14.6243 -2.70566 1.4468 
75 1 10.8766 -11.7972 -2.40062 -1.18624 
135 1 10.8766 -12.5085 -2.42919 2.69085 
424 2 -10.8766 -7.70389 -5.39109 -1.70053 
113 1 10.8766 -11.013 -5.06728 1.81408 
27 1 10.8766 -6.97264 -4.23933 1.6295 
136 1 10.8766 -8.89324 -4.63369 0.468127 
194 1 10.8766 -7.29475 -5.39283 0.373777 
203 1 10.8766 -7.10645 -4.58693 -2.21835 
291 2 -10.8766 -10.6159 -2.77466 1.21236 
355 2 -10.8766 -11.0465 -5.84373 -2.27682 
359 2 -10.8766 -10.9841 -3.49341 -2.18206 
422 2 -10.8766 -8.51864 -6.85659 0.204168 
192 1 10.8766 -8.72791 -3.21039 -1.47922 
48 1 10.8766 -4.11849 -3.98801 0.51216 
111 1 10.8766 -6.61967 -5.40726 -1.07086 
274 2 -10.8766 -4.49332 -4.53038 -1.65551 
322 2 -10.8766 -3.9357 -3.5566 2.52136 
346 2 -10.8766 -6.18754 -2.44447 -0.678614 
368 2 -10.8766 -6.09709 -4.35237 -0.488449 
369 2 -10.8766 -3.13783 -2.42789 -1.77407 
401 2 -10.8766 -4.83748 -5.70124 -0.867351 
402 2 -10.8766 -2.77321 -4.22812 -0.0929125 
186 1 10.8766 -6.27423 -2.73213 2.53194 
102 1 10.8766 -1.67721 -6.62048 -1.75223 
270 2 -10.8766 1.56427 -6.50638 1.8798 
311 2 -10.8766 1.68899 -6.51764 -0.708577 
44 1 10.8766 -2.01165 -3.8402 -2.44883 
344 2 -10.8766 -0.862757 -5.11641 -2.05379 
49 1 10.8766 1.74751 -2.76207 -1.95711 
144 1 10.8766 -0.0153175 -6.80087 0.983655 
167 1 10.8766 -2.06212 -3.4424 -0.988327 
173 1 10.8766 -0.546707 -3.70878 -1.8559 
260 2 -10.8766 1.2488 -3.95581 -0.474878 
341 2 -10.8766 -0.874097 -2.78826 -0.72481 
365 2 -10.8766 4.57009 -6.09091 -1.28164 
142 1 10.8766 5.7772 -5.91818 0.790523 
159 1 10.8766 6.95836 -2.50821 0.273338 
209 1 10.8766 3.57178 -5.62642 1.87688 
250 2 -10.8766 3.06895 -4.3056 -2.20168 
267 2 -10.8766 3.90227 -4.00052 1.8666 
357 2 -10.8766 3.87986 -5.02347 -0.0166041 
389 2 -10.8766 6.64332 -3.49799 -0.577619 
367 2 -10.8766 6.5033 -5.36209 -1.51768 
65 1 10.8766 6.65121 -3.4152 -1.82944 
176 1 10.8766 7.98015 -3.41322 -2.59598 
39 1 10.8766 11.625 -6.00361 0.983978 
127 1 10.8766 7.21125 -4.15942 0.647318 
165 1 10.8766 9.3955 -6.842 -1.18242 
242 2 -10.8766 10.6404 -6.62719 -1.89729 
304 2 -10.8766 8.23755 -6.11997 0.155483 
381 2 -10.8766 9.54569 -4.40216 -1.93481 
383 2 -10.8766 10.0866 -3.00837 -0.560929 
405 2 -10.8766 8.35244 -5.21694 -2.39712 
332 2 -10.8766 11.2337 -3.21898 -1.83856 
1 1 10.8766 15.0839 -6.38633 -0.626211 
287 2 -10.8766 13.5183 -2.64172 1.79468 
391 2 -10.8766 12.7268 -4.07372 1.58951 
207 1 10.8766 14.3646 -3.04276 0.544817 
356 2 -10.8766 12.6827 -6.45037 -1.92664 
358 2 -10.8766 14.7237 -4.16954 -0.372352 
306 2 -10.8766 14.2948 -3.03758 -1.07296 
21 1 10.8766 -14.5559 -1.47979 0.58688 
108 1 10.8766 -14.069 -0.213564 -1.21789 
133 1 10.8766 -14.5633 0.971719 -1.68729 
161 1 10.8766 -13.1253 0.538135 1.64527 
172 1 10.8766 -12.3597 1.46447 -2.43208 
385 2 -10.8766 -14.6653 -2.06716 -1.30544 
420 2 -10.8766 -13.0426 0.515406 -0.554427 
421 2 -10.8766 -12.0421 -1.00368 2.02714 
34 1 10.8766 -12.9259 -1.60864 -1.18042 
177 1 10.8766 -12.0309 1.51385 2.48246 
40 1 10.8766 -7.55797 -2.17791 -0.936238 
4 1 10.8766 -10.5496 -1.98798 -0.181475 
13 1 10.8766 -10.8782 2.1768 -2.50328 
121 1 10.8766 -6.79632 -0.595088 -1.88965 
129 1 10.8766 -8.23688 0.00844055 0.820004 
139 1 10.8766 -8.1086 1.05144 -0.937055 
204 1 10.8766 -9.27661 2.31575 0.464674 
212 1 10.8766 -10.3247 0.771599 0.862984 
220 2 -10.8766 -9.73376 -0.0375273 -1.88125 
286 2 -10.8766 -7.55486 0.212697 2.3947 
321 2 -10.8766 -10.7238 -0.592288 0.9626 
370 2 -10.8766 -9.47264 1.14244 -0.676576 
374 2 -10.8766 -11.5433 2.20714 1.07282 
51 1 10.8766 -4.28667 -0.986226 -0.637758 
109 1 10.8766 -5.44199 1.05038 -0.0455102 
143 1 10.8766 -4.3209 1.37222 -1.81839 
234 2 -10.8766 -4.26453 -2.18254 0.496428 
243 2 -10.8766 -3.43659 -0.166003 -2.2346 
254 2 -10.8766 -3.82859 2.2362 -1.16181 
333 2 -10.8766 -6.15125 0.0208526 0.986901 
353 2 -10.8766 -5.44743 -1.08096 -0.184036 
393 2 -10.8766 -4.94913 0.116257 -1.855 
146 1 10.8766 -5.51647 1.61031 -2.41206 
69 1 10.8766 -5.45321 2.00205 2.21917 
271 2 -10.8766 -3.58119 1.96602 1.60612 
335 2 -10.8766 -1.60995 1.02331 -1.84149 
7 1 10.8766 -0.241891 1.24298 -1.50298 
47 1 10.8766 1.96743 -0.310325 0.457708 
86 1 10.8766 -0.318306 -1.98017 0.0859584 
118 1 10.8766 0.368548 -0.266434 -1.74482 
145 1 10.8766 -1.08007 -0.244532 -0.470231 
379 2 -10.8766 1.51523 -0.749763 -2.31363 
412 2 -10.8766 1.26507 0.852983 0.0229598 
105 1 10.8766 2.08162 0.363977 2.36818 
388 2 -10.8766 -1.29924 0.757133 0.708624 
294 2 -10.8766 4.96543 -2.17815 0.551803 
56 1 10.8766 4.94401 -0.473217 -2.65555 
61 1 10.8766 6.8781 -1.20106 2.37785 
71 1 10.8766 2.62832 2.36164 -1.04295 
101 1 10.8766 3.03991 -0.398126 0.563131 
124 1 10.8766 4.02903 0.221327 -1.36262 
149 1 10.8766 5.27071 -0.215067 -0.300876 
185 1 10.8766 4.56913 1.2954 -0.422892 
293 2 -10.8766 2.6296 -1.96036 -1.10615 
300 2 -10.8766 5.32009 1.82291 2.05784 
337 2 -10.8766 5.60005 0.145851 -1.77398 
352 2 -10.8766 3.05933 -0.0457268 -2.32844 
392 2 -10.8766 5.15107 2.29185 -1.32977 
400 2 -10.8766 5.89059 1.48788 0.219972 
64 1 10.8766 6.63409 -1.68886 -1.28055 
206 1 10.8766 6.65727 1.2965 2.05229 
106 1 10.8766 9.03173 0.4784 -0.963276 
180 1 10.8766 11.2207 -1.9607 -2.36719 
181 1 10.8766 6.86636 0.610588 -2.66046 
208 1 10.8766 10.3884 -0.145474 -2.02599 
305 2 -10.8766 7.28443 0.236087 -1.639 
380 2 -10.8766 7.33073 -1.16156 -2.37017 
395 2 -10.8766 9.2143 -0.293873 0.159316 
378 2 -10.8766 9.8349 1.36488 1.54987 
171 1 10.8766 8.29624 1.81581 -0.161388 
107 1 10.8766 11.6546 -1.15743 0.260097 
83 1 10.8766 11.6077 2.21221 0.0816502 
93 1 10.8766 13.2853 0.755174 0.939541 
110 1 10.8766 12.2217 0.483151 -0.313635 
195 1 10.8766 12.7203 -0.967447 -1.4027 
303 2 -10.8766 14.2675 1.19097 -0.210289 
327 2 -10.8766 14.2707 -1.40533 -1.98832 
414 2 -10.8766 11.9038 0.64976 1.20068 
24 1 10.8766 -12.249 4.02686 -0.705418 
46 1 10.8766 -14.4628 3.66304 1.60839 
62 1 10.8766 -13.9019 5.00185 0.00770397 
150 1 10.8766 -13.4601 5.50256 1.48284 
157 1 10.8766 -13.9644 3.08476 -1.84888 
201 1 10.8766 -11.7738 5.43594 -2.63997 
255 2 -10.8766 -13.6113 6.09475 -0.720032 
288 2 -10.8766 -14.8999 3.57725 -0.395847 
397 2 -10.8766 -13.1532 4.37483 -2.1762 
68 1 10.8766 -11.7042 4.45952 -1.4898 
360 2 -10.8766 -12.3072 6.76072 0.245787 
57 1 10.8766 -10.5759 6.33339 0.23506 
160 1 10.8766 -10.0266 5.59609 -0.663929 
261 2 -10.8766 -8.38888 3.53966 -0.111696 
277 2 -10.8766 -9.75559 4.17618 0.679283 
347 2 -10.8766 -9.27925 3.97281 -2.29156 
354 2 -10.8766 -11.3414 5.57741 -1.26436 
342 2 -10.8766 -8.94701 5.81502 -2.20359 
215 2 -10.8766 -6.22102 2.93232 -1.03316 
36 1 10.8766 -6.40241 4.31977 -0.455457 
281 2 -10.8766 -4.98906 4.40086 2.2262 
23 1 10.8766 -2.56474 2.69058 -0.306314 
84 1 10.8766 -4.63815 5.80774 -2.47837 
99 1 10.8766 -5.7001 4.07372 -2.10439 
199 1 10.8766 -4.40271 5.28556 1.25056 
216 2 -10.8766 -4.49259 2.83553 0.196021 
264 2 -10.8766 -3.62964 3.979 0.0671986 