LAMMPS data file
5424 atoms
3 atom types
-16.1601 16.1601 xlo xhi
-16.1601 16.1601 ylo yhi
-3.16466 3.16466 zlo zhi
 
Atoms
 
1   1   10.87657545   13.86206244   -8.317944454   -0.07522703202
2   1   10.87657545   7.437914052   8.057577019   0.7941871014
3   1   10.87657545   -5.714750935   9.435696305   0.09848508256
4   1   10.87657545   -10.273387   -0.7585142789   -0.539111587
5   1   10.87657545   -8.627572818   -8.890344694   -2.351296541
6   1   10.87657545   2.477672605   12.34640754   0.8288675303
7   1   10.87657545   -0.04307675725   1.879317205   -1.590587629
8   1   10.87657545   -6.307175701   -11.85932116   -2.188178015
9   1   10.87657545   4.591504913   6.987384073   0.68652371
10   1   10.87657545   6.629876825   -12.41208786   0.997597166
11   1   10.87657545   -12.1567864   -11.49250379   0.01203040187
12   1   10.87657545   -9.058057652   -6.543227731   -2.086764162
13   1   10.87657545   -11.52717548   1.468389688   -2.091045549
14   1   10.87657545   -6.443071449   12.13931029   -1.366137907
15   1   10.87657545   -2.112612179   -11.13633615   -0.498669755
16   1   10.87657545   5.794864367   -10.20833935   -0.2962702132
17   1   10.87657545   -14.09337584   -5.849317004   0.03094437802
18   1   10.87657545   -4.154001627   -10.51403781   -0.1997185628
19   1   10.87657545   3.962595851   5.505249233   0.9922370217
20   1   10.87657545   -0.6653008928   -12.70559118   -0.807378097
21   1   10.87657545   -12.54731227   -1.967032941   -0.1267935331
22   1   10.87657545   -2.503164807   8.602915618   0.6238414978
23   1   10.87657545   -3.375480959   3.780328779   -0.7674728683
24   1   10.87657545   -14.06755628   3.504759875   0.3372966583
25   1   10.87657545   -0.03428230381   6.937278362   -1.779497056
26   1   10.87657545   -14.18740335   -5.865106801   -1.894188908
27   1   10.87657545   -7.995164749   -3.686864006   -0.2997362477
28   1   10.87657545   3.093411613   4.481435673   -0.337295333
29   1   10.87657545   1.734869557   6.721508358   0.7127136023
30   1   10.87657545   5.758591987   -12.51803991   -1.887719179
31   1   10.87657545   -13.73192002   9.921395191   -1.874673575
32   1   10.87657545   -5.71142029   -9.901588818   -1.791128288
33   1   10.87657545   5.09688741   5.740380949   -1.546946021
34   1   10.87657545   -11.44175444   -0.4822485885   -0.6275210705
35   1   10.87657545   12.41368005   -9.960798092   0.899312584
36   1   10.87657545   -7.566291662   4.306950836   0.380031797
37   1   10.87657545   -7.479004147   -9.559809328   -0.2720286708
38   1   10.87657545   4.697320826   -14.63711539   -0.5508083328
39   1   10.87657545   10.16444565   -6.701202739   0.5517157092
40   1   10.87657545   -8.170514496   -2.764313908   0.8896978587
41   1   10.87657545   10.7600152   4.626552198   -2.095736221
42   1   10.87657545   -5.128370091   -9.216515725   -0.7867885054
43   1   10.87657545   -12.40121212   8.253207161   1.179398663
44   1   10.87657545   -2.374531559   -5.081768158   -2.501915489
45   1   10.87657545   11.43310562   -15.3823528   -1.672883344
46   1   10.87657545   -15.13227551   3.299828507   1.151315615
47   1   10.87657545   0.9263692273   -1.190065972   1.066516818
48   1   10.87657545   -6.220143016   -5.593365752   -0.9965012553
49   1   10.87657545   1.185466554   -2.836837514   -1.439963855
50   1   10.87657545   -13.13853756   -6.511467738   -2.404130187
51   1   10.87657545   -3.906211842   -1.853990693   -1.912934335
52   1   10.87657545   9.467525344   -10.38745056   -1.088726711
53   1   10.87657545   -10.14589547   13.50997086   0.9059105704
54   1   10.87657545   -11.35444184   -7.601759879   -0.5034120448
55   1   10.87657545   -4.053361248   7.016625861   -1.112218795
56   1   10.87657545   6.000135316   0.01099442543   -1.910387464
57   1   10.87657545   -10.80868347   5.624380063   1.104726212
58   1   10.87657545   5.604992414   14.1147211   0.4916663578
59   1   10.87657545   8.383362504   12.82043895   0.7957993137
60   1   10.87657545   5.601884742   1.652782403   0.4355785756
61   1   10.87657545   5.939735603   -1.157816982   0.3717414324
62   1   10.87657545   -13.23928878   4.285899982   -0.5619239554
63   1   10.87657545   -8.649502532   -15.4295106   -0.02174361221
64   1   10.87657545   7.396848531   -1.719397155   -0.4120096559
65   1   10.87657545   8.086011664   -1.929487104   -1.547041497
66   1   10.87657545   2.390299899   -11.38569947   -0.9120312757
67   1   10.87657545   3.864244569   -11.44902963   0.7269712571
68   1   10.87657545   -11.34043687   4.740304533   -1.175435967
69   1   10.87657545   -3.663727153   2.796430623   0.8495944874
70   1   10.87657545   1.6841646   -14.89409414   -1.580262992
71   1   10.87657545   2.940337122   0.4725454105   -0.8476040141
72   1   10.87657545   3.07107735   -14.73222986   -2.441793022
73   1   10.87657545   -13.74717961   7.410772986   -0.6199025953
74   1   10.87657545   -4.802054472   -12.96178288   -1.388647836
75   1   10.87657545   -10.77232405   -3.063248153   0.1582631204
76   1   10.87657545   9.66208838   -14.23469287   -1.912973383
77   1   10.87657545   2.330692022   10.30235807   -1.478660092
78   1   10.87657545   12.1527083   10.7517451   -0.9683056223
79   1   10.87657545   -14.46454075   6.39849489   -1.533861101
80   1   10.87657545   0.2782987515   -14.8308475   0.8647572118
81   1   10.87657545   9.719614639   9.525000916   -0.09248270235
82   1   10.87657545   1.1629937   8.705571325   -0.8217943901
83   1   10.87657545   13.8128575   1.699935141   1.05380819
84   1   10.87657545   -3.77051012   4.598112191   -2.274511905
85   1   10.87657545   -10.67930076   11.94496385   1.109230938
86   1   10.87657545   -1.880573651   -1.017094252   -0.4501530105
87   1   10.87657545   13.86079778   -7.794256259   -2.46959719
88   1   10.87657545   -1.713308487   5.395056334   -0.0176204719
89   1   10.87657545   -14.8474589   10.28379108   -1.959748297
90   1   10.87657545   -12.61123375   12.095353   -0.2706160663
91   1   10.87657545   9.781266554   1.021937249   -2.227139869
92   1   10.87657545   -13.82527673   12.37378853   -1.767697894
93   1   10.87657545   13.41719061   0.2268367599   0.3229233185
94   1   10.87657545   9.321321715   4.52213042   -0.9551099829
95   1   10.87657545   -14.01681102   -7.688409738   1.070759389
96   1   10.87657545   5.300366747   3.263582838   -1.760866631
97   1   10.87657545   12.10344124   7.998748904   -2.151166617
98   1   10.87657545   10.91400677   8.535342862   0.9256462354
99   1   10.87657545   -4.789760138   3.38253168   -1.414073351
100   1   10.87657545   12.94677324   10.09298188   -0.2707653097
101   1   10.87657545   3.79424619   -1.316182344   0.2752643845
102   1   10.87657545   -4.080908315   -8.115363752   -0.9998949871
103   1   10.87657545   6.51974652   -14.02709497   -0.03742009015
104   1   10.87657545   -3.220329946   9.830350051   -0.7560847513
105   1   10.87657545   2.721570814   -0.3279183588   0.8684682413
106   1   10.87657545   10.1872867   0.5210501573   -0.05302742077
107   1   10.87657545   11.18348843   -1.369176599   -0.8391075398
108   1   10.87657545   -13.6652016   -1.480249665   -1.415017818
109   1   10.87657545   -4.785765047   1.549000929   -0.9130430317
110   1   10.87657545   12.18124062   -0.3085649694   -1.219146224
111   1   10.87657545   -5.336863392   -6.611676641   -1.789687291
112   1   10.87657545   -12.42121671   -9.536889618   -0.9593284587
113   1   10.87657545   -12.09324235   -4.516837499   0.2790662116
114   1   10.87657545   5.911152805   4.4579117   -0.6853450037
115   1   10.87657545   -13.05415311   -9.273783697   1.086240901
116   1   10.87657545   7.574326223   8.296028467   -1.274398871
117   1   10.87657545   5.207842721   11.99565727   -0.6665930683
118   1   10.87657545   0.9781728278   0.08815589563   -0.9284554264
119   1   10.87657545   3.798461389   -14.88172315   0.8828918441
120   1   10.87657545   12.14612425   -14.09495885   -0.3626531146
121   1   10.87657545   -8.462953314   -0.4936957524   -1.678894346
122   1   10.87657545   -12.71489368   -3.587521059   -2.383836338
123   1   10.87657545   10.11135568   13.53516664   -1.273662141
124   1   10.87657545   4.3299813   -0.206596586   -2.135452152
125   1   10.87657545   8.683547529   -14.19332509   1.006855272
126   1   10.87657545   12.99795137   -7.994743254   -1.551458018
127   1   10.87657545   8.046811139   -4.415031076   0.04513878476
128   1   10.87657545   7.405264496   2.105440197   -1.056051914
129   1   10.87657545   -7.473638225   -0.6723195329   -0.3136916438
130   1   10.87657545   -3.738346155   -9.203684054   0.2544253919
131   1   10.87657545   -8.02118573   -10.62874669   -1.410479022
132   1   10.87657545   -11.89438528   7.718914424   -1.710709424
133   1   10.87657545   -14.9672648   1.332329049   -0.9110613763
134   1   10.87657545   -12.63660898   -6.15612198   0.686384174
135   1   10.87657545   -11.02161772   -1.2417362   0.540172424
136   1   10.87657545   -9.791368941   -4.872618068   0.5328386147
137   1   10.87657545   10.4832085   -9.727334157   -2.351600602
138   1   10.87657545   -2.851893176   11.83723249   0.7406925919
139   1   10.87657545   -8.152722686   0.8929519699   -1.032647785
140   1   10.87657545   -12.57500445   13.46955946   -1.893997773
141   1   10.87657545   -4.659471783   -13.42103357   0.7118838252
142   1   10.87657545   5.965357296   -5.116838985   -0.6295749551
143   1   10.87657545   -5.769076024   1.200785684   -2.009577939
144   1   10.87657545   -0.2940341741   -5.308745724   1.049956347
145   1   10.87657545   -1.122830754   0.8386772278   -0.03349288005
146   1   10.87657545   -7.198077469   2.575184202   -2.21604449
147   1   10.87657545   -2.293398547   13.85723988   1.042948566
148   1   10.87657545   5.52902442   -8.96068134   -0.5081909353
149   1   10.87657545   4.722740042   -1.46292326   -0.9750878162
150   1   10.87657545   -14.66165406   4.713535835   1.061342907
151   1   10.87657545   13.09117082   -11.75283195   -0.4815639307
152   1   10.87657545   -7.430368438   8.643422575   0.8402682838
153   1   10.87657545   6.324251454   3.973890719   0.392188146
154   1   10.87657545   -1.124915591   3.542729119   -1.229200705
155   1   10.87657545   9.568355086   -8.40079464   -0.2479234497
156   1   10.87657545   11.60030937   -9.213230562   0.1187060318
157   1   10.87657545   -11.57695571   2.461281931   -1.192083707
158   1   10.87657545   0.4213919588   1.805902614   0.8317942502
159   1   10.87657545   6.227320029   -3.811891051   0.9201443963
160   1   10.87657545   -9.358467044   3.639114237   -0.4319152448
161   1   10.87657545   -13.98696357   0.8855642814   0.5844798743
162   1   10.87657545   -7.1001724   9.32530632   -1.325804999
163   1   10.87657545   -15.11400253   10.95490844   0.6058094361
164   1   10.87657545   -1.279502917   12.47021056   0.2398279546
165   1   10.87657545   8.559309238   -6.33680152   -2.298637723
166   1   10.87657545   0.221921476   5.832187187   -0.02671356993
167   1   10.87657545   -1.408953716   -2.433911547   -2.306657464
168   1   10.87657545   2.199908853   -8.83708383   0.9333465282
169   1   10.87657545   -10.45049013   9.380482136   -2.084405586
170   1   10.87657545   4.286031226   -8.342743111   0.4009788233
171   1   10.87657545   6.891993745   2.320360707   0.1394488589
172   1   10.87657545   -13.33104952   1.56429568   -2.456614295
173   1   10.87657545   0.5096464695   -4.427098546   -0.08842733275
174   1   10.87657545   4.037729305   -9.477525586   -1.436407423
175   1   10.87657545   -15.04616669   -4.132846284   -0.8005081337
176   1   10.87657545   6.874795971   -4.106126612   -2.397863748
177   1   10.87657545   -11.41670772   2.689322748   1.169501712
178   1   10.87657545   11.27173741   -11.25221537   -2.240697852
179   1   10.87657545   -2.906828763   -8.007958112   -0.1379208481
180   1   10.87657545   11.53772062   -1.40358521   -2.144816177
181   1   10.87657545   7.427652383   0.312215767   -2.066147137
182   1   10.87657545   4.650241689   -12.94559599   1.136039934
183   1   10.87657545   -14.42309861   -12.61213829   0.7772681154
184   1   10.87657545   9.884593153   6.703941889   -0.4594612121
185   1   10.87657545   4.23379809   0.7389373674   -0.6406155183
186   1   10.87657545   -6.932470145   -1.162610044   0.6347784998
187   1   10.87657545   -10.31111328   -6.476642251   -0.6056380924
188   1   10.87657545   -4.091556455   -12.01153479   -1.291308912
189   1   10.87657545   -13.50582884   14.14436587   -0.1876876166
190   1   10.87657545   -1.231276095   -7.488703175   -0.3479224997
191   1   10.87657545   -6.434035156   7.580843509   -2.146307711
192   1   10.87657545   -10.05619542   -2.075452575   -1.052768418
193   1   10.87657545   6.859520792   -5.657730309   1.158695962
194   1   10.87657545   -8.349974902   -5.190341617   -0.5775727404
195   1   10.87657545   13.51491444   -1.829693873   0.08062283635
196   1   10.87657545   12.31266051   -8.863707665   -1.154009567
197   1   10.87657545   -1.264860646   9.759373056   -2.072579388
198   1   10.87657545   -1.810567506   -14.73006722   -1.01676744
199   1   10.87657545   -5.533021857   5.377254666   -0.1900343486
200   1   10.87657545   -14.78796509   5.680436031   -0.6081486312
201   1   10.87657545   -11.89495638   6.004610008   -1.605620144
202   1   10.87657545   -15.46469678   9.576792204   -0.8014855713
203   1   10.87657545   -7.358033069   -2.551582558   -1.125054184
204   1   10.87657545   -8.851503055   1.35250066   0.932523781
205   1   10.87657545   -15.40644191   -9.677591288   0.8297286546
206   1   10.87657545   7.680708984   1.073504964   1.151155997
207   1   10.87657545   13.15021837   -4.213036326   -0.2673979187
208   1   10.87657545   8.517367874   -0.6544794623   -1.940611196
209   1   10.87657545   2.337170055   -5.075385983   0.09290339573
210   1   10.87657545   -13.59231324   -9.316102084   -1.556902184
211   1   10.87657545   -4.62120149   -8.906565628   -1.897532694
212   1   10.87657545   -11.13340894   1.084399569   0.3509060579
213   2   -10.87657545   -1.603847493   -13.13496613   -0.08317140714
214   2   -10.87657545   11.72100794   13.26042035   -1.677888751
215   2   -10.87657545   -5.93974884   1.110945034   -0.7725488899
216   2   -10.87657545   -5.816332595   3.271582453   -0.8118973709
217   2   -10.87657545   -11.25185016   11.94628805   -0.8581371811
218   2   -10.87657545   -13.90017308   10.03365275   0.4244906168
219   2   -10.87657545   12.31428548   -10.61727716   -2.002095113
220   2   -10.87657545   -10.39510157   0.5432226916   -2.366006389
221   2   -10.87657545   -3.069173295   -10.74355569   -2.167686482
222   2   -10.87657545   -7.947604762   9.986229035   -2.010309479
223   2   -10.87657545   2.978051133   7.759866044   0.09728763412
224   2   -10.87657545   1.440240452   9.981752575   -0.5253200057
225   2   -10.87657545   -10.11374084   -12.13701849   0.07215647488
226   2   -10.87657545   -8.24786971   7.27289567   0.9148353962
227   2   -10.87657545   -1.078373524   -9.053660999   -2.013110882
228   2   -10.87657545   0.5813930853   -12.53473564   -1.919761681
229   2   -10.87657545   6.773723769   6.684775496   -0.7023845015
230   2   -10.87657545   6.410044523   11.08470256   -1.857096649
231   2   -10.87657545   0.3776373028   -12.69136423   -0.1585325387
232   2   -10.87657545   -12.09520235   -13.14716431   -0.3478904135
233   2   -10.87657545   11.51826104   3.768374532   0.7829668335
234   2   -10.87657545   -4.287938348   -1.823381163   0.3214203873
235   2   -10.87657545   -13.34689578   -6.644042361   -1.152749401
236   2   -10.87657545   5.88286985   -15.40919605   -0.8051745436
237   2   -10.87657545   12.92509903   5.704636048   -1.447880933
238   2   -10.87657545   -7.011079186   -8.282166145   -0.5208471774
239   2   -10.87657545   2.507440096   3.796551373   -2.308678041
240   2   -10.87657545   11.95478671   -12.07397968   -1.653741442
241   2   -10.87657545   13.84406924   12.96009688   -2.052505235
242   2   -10.87657545   10.87574594   -5.66940762   -1.456354898
243   2   -10.87657545   -3.100588344   1.432850057   -1.95897739
244   2   -10.87657545   -14.11930933   13.71773813   0.8026692408
245   2   -10.87657545   -5.50919706   10.04258027   -2.127904784
246   2   -10.87657545   10.53846347   12.45521203   0.4251273358
247   2   -10.87657545   -10.35897249   -9.251618271   1.107586448
248   2   -10.87657545   3.608268749   -15.29206049   -0.7891688611
249   2   -10.87657545   -2.931545043   7.298472595   -0.2253194953
250   2   -10.87657545   4.300517044   -5.164934332   -1.757365213
251   2   -10.87657545   12.9296649   -13.35078322   -1.423648439
252   2   -10.87657545   1.027589742   4.117799983   0.2875992865
253   2   -10.87657545   -13.57841014   -10.87849749   -2.239748059
254   2   -10.87657545   -4.54796382   2.301195866   -2.03891895
255   2   -10.87657545   -12.7769339   5.793324799   -0.8153658264
256   2   -10.87657545   -10.62493953   10.23621791   -0.6554122557
257   2   -10.87657545   -8.138753796   11.97493844   -1.314120701
258   2   -10.87657545   8.680863482   5.252058249   -1.893088632
259   2   -10.87657545   -13.08570362   -12.05252933   0.7480265632
260   2   -10.87657545   1.565830413   -2.963049095   -0.04419565861
261   2   -10.87657545   -8.135612168   4.19819165   -1.005098106
262   2   -10.87657545   -12.02345535   -2.317549595   1.076466355
263   2   -10.87657545   6.659386982   -8.825893351   -2.207791549
264   2   -10.87657545   -3.608894021   5.023913144   -0.9563247234
265   2   -10.87657545   -14.10611824   -14.73453877   0.4442348119
266   2   -10.87657545   6.488384617   13.69193881   -1.172319884
267   2   -10.87657545   2.908495706   -3.128083498   0.4615853782
268   2   -10.87657545   -15.30123087   12.86826196   0.8035300597
269   2   -10.87657545   8.331330322   11.21613375   0.1020243534
270   2   -10.87657545   1.810981655   -7.722930611   1.102663297
271   2   -10.87657545   -2.698526442   3.142028723   0.2826166981
272   2   -10.87657545   -10.46819523   8.558612776   0.4398285186
273   2   -10.87657545   13.14416009   8.710832123   0.07970592164
274   2   -10.87657545   -4.795695088   -3.597339322   -2.151454692
275   2   -10.87657545   13.28384212   10.3136489   1.053562166
276   2   -10.87657545   3.363820724   10.03120437   0.9069619134
277   2   -10.87657545   -7.953107637   6.155515264   -1.186007284
278   2   -10.87657545   -9.382206224   9.579976342   -1.640237517
279   2   -10.87657545   10.70925661   -11.62014584   -0.2105261091
280   2   -10.87657545   6.417105961   -11.53959807   -0.2538598298
281   2   -10.87657545   -7.145348587   6.392161929   0.9284590188
282   2   -10.87657545   13.43254708   7.603528988   -1.947079904
283   2   -10.87657545   -7.811231737   -11.48984584   0.4301487804
284   2   -10.87657545   7.10106039   3.986867628   -1.417796232
285   2   -10.87657545   -3.96146473   -15.45433886   -0.6543533805
286   2   -10.87657545   -7.277549824   -0.1313508191   1.083561803
287   2   -10.87657545   11.31781035   -2.381699456   0.7069703258
288   2   -10.87657545   -14.82357292   4.512434077   -0.6713012531
289   2   -10.87657545   -14.39095808   -7.238693744   -0.1998834151
290   2   -10.87657545   2.25461767   -13.65270529   -2.366067052
291   2   -10.87657545   -9.497938582   -3.202108413   0.9717698151
292   2   -10.87657545   -12.37714614   9.241851402   -0.5747231197
293   2   -10.87657545   3.747145978   -2.136026798   -0.7244597369
294   2   -10.87657545   4.772982856   -3.048814414   0.9232996549
295   2   -10.87657545   -2.67168646   3.856163111   -2.426818509
296   2   -10.87657545   11.31408551   -14.96229932   0.135137217
297   2   -10.87657545   -0.8461609331   -10.31625351   0.6300125862
298   2   -10.87657545   10.14249346   -14.28022167   -0.05825027987
299   2   -10.87657545   6.330738704   -6.550334153   -0.6991734386
300   2   -10.87657545   3.92742493   1.597467115   1.014348024
301   2   -10.87657545   10.5317917   5.719444884   -0.2294274697
302   2   -10.87657545   10.41293666   8.438572356   -1.451794588
303   2   -10.87657545   13.95825803   1.243007773   -0.1287340931
304   2   -10.87657545   9.560416874   -4.982226415   -0.2268262347
305   2   -10.87657545   9.52188164   -1.880757407   -0.8239875624
306   2   -10.87657545   13.69769469   -1.602014916   -1.804994783
307   2   -10.87657545   -12.36896395   -12.04033709   -1.123665995
308   2   -10.87657545   -11.25636285   8.37689093   -0.7982815394
309   2   -10.87657545   7.922417239   7.099937829   -2.488490181
310   2   -10.87657545   3.948654032   6.487299491   -1.640035117
311   2   -10.87657545   2.246986078   -7.814467867   -0.3980177978
312   2   -10.87657545   -13.79798822   -10.16027987   -0.7605604424
313   2   -10.87657545   -2.732119206   8.346082171   -1.935967899
314   2   -10.87657545   0.9592689652   -8.885494819   -1.562333984
315   2   -10.87657545   1.494709061   -13.97526284   -0.4115991629
316   2   -10.87657545   -15.41534636   -11.04158371   -2.039538095
317   2   -10.87657545   -7.471500573   10.80654858   0.3315830283
318   2   -10.87657545   12.46900249   4.013915398   -0.3058916467
319   2   -10.87657545   8.384529551   -13.84132527   -1.411444062
320   2   -10.87657545   -0.2492762707   -13.50270676   0.8039297602
321   2   -10.87657545   -11.47992412   0.0002740348146   1.083628112
322   2   -10.87657545   -5.266855537   -4.974440954   0.2676846069
323   2   -10.87657545   13.35893066   -9.048359988   -2.03255153
324   2   -10.87657545   -2.750210642   6.422339441   0.9326190454
325   2   -10.87657545   -0.153183556   -10.45640639   -1.089192315
326   2   -10.87657545   12.38608224   2.255422518   -1.299774142
327   2   -10.87657545   13.91126507   0.06202598682   -1.192939736
328   2   -10.87657545   4.463925765   10.66132297   0.3025673489
329   2   -10.87657545   -8.458806526   -12.4237146   -1.733465781
330   2   -10.87657545   2.140415454   12.1803857   -1.254810354
331   2   -10.87657545   6.084139913   2.495752941   -1.025533952
332   2   -10.87657545   11.64870546   -2.681093382   -1.865342953
333   2   -10.87657545   -5.54244833   1.18166351   0.7626876461
334   2   -10.87657545   4.582170264   8.690444907   -2.275359845
335   2   -10.87657545   -2.344250892   0.4766878758   -0.07900411871
336   2   -10.87657545   -4.69937481   12.64810659   -1.790935452
337   2   -10.87657545   5.869053234   -0.3268096329   -0.5539541114
338   2   -10.87657545   12.6593114   -14.04098363   0.8135511203
339   2   -10.87657545   12.07789347   -8.157912575   0.4948796086
340   2   -10.87657545   -1.27400827   8.281962333   -1.025867089
341   2   -10.87657545   -0.3694215269   -2.456119503   -0.9140612883
342   2   -10.87657545   -10.11508617   6.988198621   -1.682405151
343   2   -10.87657545   2.941895693   12.8799094   -2.075331924
344   2   -10.87657545   -2.477403947   -6.204953801   -1.343185785
345   2   -10.87657545   7.010651469   -13.69143266   -1.893759261
346   2   -10.87657545   -5.319286545   -3.076691354   -0.3371202722
347   2   -10.87657545   -10.58539589   5.341902046   -2.015971401
348   2   -10.87657545   -0.8117415325   -8.270424082   0.7845256321
349   2   -10.87657545   -3.604303573   6.103051   -2.196144016
350   2   -10.87657545   9.105100719   -13.09059704   0.8945796449
351   2   -10.87657545   -4.717123288   8.549461262   -1.13675915
352   2   -10.87657545   3.695950363   1.787555705   -2.165362739
353   2   -10.87657545   -5.545215338   -0.4815885089   -0.6014827342
354   2   -10.87657545   -11.08386755   5.33355398   -0.05646619126
355   2   -10.87657545   -11.30077247   -5.239834744   -2.022337647
356   2   -10.87657545   14.15240603   -4.607749679   -2.322591127
357   2   -10.87657545   2.59346288   -4.22713441   -0.7503561267
358   2   -10.87657545   13.98968041   -5.655223407   -0.5208343788
359   2   -10.87657545   -9.80647036   -4.790274424   -1.03980078
360   2   -10.87657545   -14.73712692   8.218382604   -0.06725146939
361   2   -10.87657545   6.191950311   7.567674509   -1.677660217
362   2   -10.87657545   -4.210004557   13.83662211   0.7619140685
363   2   -10.87657545   -4.829670952   -10.46593827   -1.253827775
364   2   -10.87657545   1.778100371   -9.910041583   -0.3340209404
365   2   -10.87657545   3.191804733   -7.18503798   -2.323474073
366   2   -10.87657545   -1.032962506   13.80998628   -0.1695177824
367   2   -10.87657545   7.489245226   -5.635921685   -1.786977964
368   2   -10.87657545   -6.728707455   -3.841907455   -0.6775220962
369   2   -10.87657545   -2.785325378   -3.190287806   -2.00462733
370   2   -10.87657545   -9.352327004   1.230196628   -1.178174222
371   2   -10.87657545   -11.07362234   -9.564242644   -1.10859096
372   2   -10.87657545   -14.27058492   13.79119027   -1.425372294
373   2   -10.87657545   12.55408032   12.76724445   -0.1490179384
374   2   -10.87657545   -9.616536736   2.571669014   0.7274865644
375   2   -10.87657545   1.038343302   8.020396377   1.043977304
376   2   -10.87657545   7.182558943   9.325013701   1.008895722
377   2   -10.87657545   -15.11709505   -9.298130236   -2.113718342
378   2   -10.87657545   12.07187729   1.144022494   0.05697602012
379   2   -10.87657545   0.1211493697   -1.116321789   -1.532524256
380   2   -10.87657545   6.960679102   -0.9357147455   -2.053547301
381   2   -10.87657545   10.66869209   -3.17551489   -0.4239006033
382   2   -10.87657545   9.165805911   7.601931466   -1.486783211
383   2   -10.87657545   9.198677481   -3.106909989   0.993559543
384   2   -10.87657545   11.77061154   8.351365854   -0.3917245156
385   2   -10.87657545   -14.75824212   -1.518941988   0.8418711734
386   2   -10.87657545   -4.326036484   6.890428001   0.4663280014
387   2   -10.87657545   3.498492727   -9.845652164   0.7512053394
388   2   -10.87657545   -1.138950403   3.068469501   -0.1663296392
389   2   -10.87657545   5.762281007   -3.739807524   -0.4063530344
390   2   -10.87657545   -13.72585928   -4.283231488   0.9899772652
391   2   -10.87657545   11.5107331   -4.208173467   0.03255196043
392   2   -10.87657545   5.701454502   1.886262071   -2.400965022
393   2   -10.87657545   -3.947497363   0.5730458059   -0.63668559
394   2   -10.87657545   -13.711126   -2.844883233   0.9305803885
395   2   -10.87657545   10.58216957   -0.1834597696   1.087366781
396   2   -10.87657545   -7.876178371   -11.27580621   -2.480985753
397   2   -10.87657545   -13.34586165   3.938018032   -1.90743355
398   2   -10.87657545   9.050009155   13.43704767   -2.372553392
399   2   -10.87657545   -11.33105339   -14.53385478   -0.2102896943
400   2   -10.87657545   4.910259698   -0.3783375242   0.6333389413
401   2   -10.87657545   -5.695750788   -6.816279751   0.6104412816
402   2   -10.87657545   -4.537089083   -5.039316369   -0.9082409231
403   2   -10.87657545   7.04633003   -9.928752986   -0.08193722747
404   2   -10.87657545   -9.403541426   12.08502489   -0.437920623
405   2   -10.87657545   9.508160044   -4.172471263   -2.269024212
406   2   -10.87657545   -8.675534338   7.388912636   -1.796533229
407   2   -10.87657545   -11.56987847   -9.888797152   0.1665166489
408   2   -10.87657545   10.96913559   6.161959066   1.124544716
409   2   -10.87657545   6.415567808   9.695193937   -0.5270898038
410   2   -10.87657545   -13.26915143   8.583337638   -1.946998121
411   2   -10.87657545   8.438404363   -11.36725428   1.122639965
412   2   -10.87657545   2.009064137   0.8835086234   0.2468193784
413   2   -10.87657545   -5.174470007   -11.24269904   0.3032964264
414   2   -10.87657545   12.51411093   -0.5893325603   0.0108714704
415   2   -10.87657545   11.15107997   10.14148022   -1.560843791
416   2   -10.87657545   2.790730266   2.238925146   0.6523746777
417   2   -10.87657545   -4.889142209   -14.59661799   0.9955058776
418   2   -10.87657545   -6.502561556   -15.03392426   0.5890115086
419   2   -10.87657545   8.293060866   3.193058199   0.3937017369
420   2   -10.87657545   -13.79682565   1.81807121   -0.8218171944
421   2   -10.87657545   -14.22995232   -0.2305881211   0.8579919335
422   2   -10.87657545   -8.223580944   -6.283570196   -1.193249661
423   2   -10.87657545   5.606040415   10.74000518   1.050139518
424   2   -10.87657545   -7.843952173   -6.94972842   -2.392314453
425  3   0   -15.66008304  -15.66008304  3.164556962
426  3   0   -15.01367972  -15.66008304  3.164556962
427  3   0   -14.36727639  -15.66008304  3.164556962
428  3   0   -13.72087307  -15.66008304  3.164556962
429  3   0   -13.07446975  -15.66008304  3.164556962
430  3   0   -12.42806643  -15.66008304  3.164556962
431  3   0   -11.78166311  -15.66008304  3.164556962
432  3   0   -11.13525979  -15.66008304  3.164556962
433  3   0   -10.48885646  -15.66008304  3.164556962
434  3   0   -9.842453143  -15.66008304  3.164556962
435  3   0   -9.196049822  -15.66008304  3.164556962
436  3   0   -8.5496465  -15.66008304  3.164556962
437  3   0   -7.903243179  -15.66008304  3.164556962
438  3   0   -7.256839858  -15.66008304  3.164556962
439  3   0   -6.610436536  -15.66008304  3.164556962
440  3   0   -5.964033215  -15.66008304  3.164556962
441  3   0   -5.317629893  -15.66008304  3.164556962
442  3   0   -4.671226572  -15.66008304  3.164556962
443  3   0   -4.02482325  -15.66008304  3.164556962
444  3   0   -3.378419929  -15.66008304  3.164556962
445  3   0   -2.732016607  -15.66008304  3.164556962
446  3   0   -2.085613286  -15.66008304  3.164556962
447  3   0   -1.439209964  -15.66008304  3.164556962
448  3   0   -0.7928066429  -15.66008304  3.164556962
449  3   0   -0.1464033215  -15.66008304  3.164556962
450  3   0   0.5  -15.66008304  3.164556962
451  3   0   1.146403321  -15.66008304  3.164556962
452  3   0   1.792806643  -15.66008304  3.164556962
453  3   0   2.439209964  -15.66008304  3.164556962
454  3   0   3.085613286  -15.66008304  3.164556962
455  3   0   3.732016607  -15.66008304  3.164556962
456  3   0   4.378419929  -15.66008304  3.164556962