LAMMPS (15 May 2015)
Reading data file ...
  orthogonal box = (-10.7281 -10.7281 -2.60084) to (10.7281 10.7281 2.60084)
  2 by 2 by 1 MPI processor grid
  reading atoms ...
  424 atoms
212 atoms in group positive_ions
212 atoms in group negative_ions
424 atoms in group salt_ions
PPPMDisp initialization ...
WARNING: Table inner cutoff >= outer cutoff (../pair.cpp:1607)
WARNING: Table inner cutoff >= outer cutoff (../pair.cpp:1607)
WARNING: Table inner cutoff >= outer cutoff (../pair.cpp:1607)
WARNING: Table inner cutoff >= outer cutoff (../pair.cpp:1607)
  Coulomb G vector (1/distance)= 0.359897
  Coulomb grid = 18 18 12
  Coulomb stencil order = 5
  Coulomb estimated absolute RMS force accuracy = 0.000101278
  Coulomb estimated relative force accuracy = 0.000101278
  using double precision FFTs
  3d grid and FFT values/proc = 2744 972
WARNING: Table inner cutoff >= outer cutoff (../pair.cpp:1607)
WARNING: Table inner cutoff >= outer cutoff (../pair.cpp:1607)
WARNING: Table inner cutoff >= outer cutoff (../pair.cpp:1607)
WARNING: Table inner cutoff >= outer cutoff (../pair.cpp:1607)
Neighbor list info ...
  1 neighbor list requests
  update every 1 steps, delay 0 steps, check yes
  master list distance cutoff = 8.1
Setting up run ...
Memory usage per processor = 3.81279 Mbytes
Step Temp Volume Density KinEng PotEng TotEng 
       0   0.99763593    2394.6897   0.17705843    1.4929245 -0.059626009    1.4332985 
    1000     1.036683    2394.6897   0.17705843     1.551357  -0.23677445    1.3145826 
    2000     1.099898    2394.6897   0.17705843    1.6459558  -0.20243632    1.4435195 
    3000    0.9660974    2394.6897   0.17705843    1.4457283  -0.18548109    1.2602472 
    4000     1.034151    2394.6897   0.17705843    1.5475679  -0.20254453    1.3450234 
    5000   0.98569494    2394.6897   0.17705843    1.4750553  -0.20404065    1.2710146 
    6000   0.96693551    2394.6897   0.17705843    1.4469825  -0.20288144    1.2441011 
    7000    1.0005425    2394.6897   0.17705843    1.4972741  -0.21240807     1.284866 
    8000    1.0065935    2394.6897   0.17705843    1.5063291  -0.25204093    1.2542882 
    9000    1.0244198    2394.6897   0.17705843    1.5330056  -0.25910053     1.273905 
   10000     1.027829    2394.6897   0.17705843    1.5381073  -0.24717009    1.2909372 
   11000    1.0042712    2394.6897   0.17705843    1.5028539  -0.21868588     1.284168 
   12000     1.030095    2394.6897   0.17705843    1.5414983  -0.19756349    1.3439348 
   13000    1.0019652    2394.6897   0.17705843    1.4994031   -0.2142553    1.2851478 
   14000   0.99495967    2394.6897   0.17705843    1.4889196  -0.27486053    1.2140591 
   15000   0.95075028    2394.6897   0.17705843    1.4227619  -0.22602285    1.1967391 
   16000   0.99506373    2394.6897   0.17705843    1.4890753   -0.2575842    1.2314911 
   17000   0.97997144    2394.6897   0.17705843    1.4664903  -0.22736458    1.2391257 
   18000    1.0391373    2394.6897   0.17705843    1.5550298  -0.22653182     1.328498 
   19000    1.0048375    2394.6897   0.17705843    1.5037014  -0.18849181    1.3152096 
   20000   0.92411243    2394.6897   0.17705843    1.3828994  -0.21848869    1.1644107 
   21000   0.93568742    2394.6897   0.17705843    1.4002209   -0.2414461    1.1587748 
   22000    0.9730462    2394.6897   0.17705843    1.4561269  -0.21417031    1.2419566 
   23000    1.0161294    2394.6897   0.17705843    1.5205993  -0.20803469    1.3125646 
   24000    1.0163487    2394.6897   0.17705843    1.5209275  -0.16600259    1.3549249 
   25000   0.97341829    2394.6897   0.17705843    1.4566837  -0.23831851    1.2183652 
   26000    1.0058771    2394.6897   0.17705843    1.5052571  -0.25059558    1.2546615 
   27000     1.077693    2394.6897   0.17705843    1.6127269  -0.22810395    1.3846229 
   28000    1.0120259    2394.6897   0.17705843    1.5144586  -0.22918041    1.2852782 
   29000   0.99649373    2394.6897   0.17705843    1.4912153  -0.25888904    1.2323262 
   30000   0.98520756    2394.6897   0.17705843    1.4743259  -0.21967803    1.2546479 
   31000     1.090613    2394.6897   0.17705843    1.6320611  -0.21764836    1.4144128 
   32000    1.0009019    2394.6897   0.17705843    1.4978119  -0.22562007    1.2721918 
   33000    1.0560796    2394.6897   0.17705843    1.5803833  -0.27496838     1.305415 
   34000     1.030991    2394.6897   0.17705843    1.5428391  -0.21784718    1.3249919 
   35000   0.96066665    2394.6897   0.17705843    1.4376014  -0.26176771    1.1758337 
   36000   0.98391507    2394.6897   0.17705843    1.4723918   -0.2221851    1.2502067 
   37000    1.0317041    2394.6897   0.17705843    1.5439063  -0.25857579    1.2853305 
   38000    0.9924728    2394.6897   0.17705843    1.4851981  -0.22763976    1.2575583 
   39000   0.92973714    2394.6897   0.17705843    1.3913165  -0.24985917    1.1414574 
   40000   0.98241057    2394.6897   0.17705843    1.4701403  -0.20723756    1.2629028 
   41000   0.92014768    2394.6897   0.17705843    1.3769663  -0.29250471    1.0844616 
   42000     0.984354    2394.6897   0.17705843    1.4730486   -0.2287897    1.2442589 
   43000     1.004598    2394.6897   0.17705843    1.5033431  -0.18939339    1.3139497 
   44000    1.0645649    2394.6897   0.17705843    1.5930813  -0.22606808    1.3670132 
   45000    1.0155091    2394.6897   0.17705843     1.519671  -0.24730075    1.2723703 
   46000    1.0040893    2394.6897   0.17705843    1.5025818  -0.22241871    1.2801631 
   47000    1.0205056    2394.6897   0.17705843    1.5271482  -0.23592405    1.2912241 
   48000    1.0018382    2394.6897   0.17705843     1.499213  -0.23443735    1.2647757 
   49000    1.0072686    2394.6897   0.17705843    1.5073395  -0.23602901    1.2713105 
   50000    1.0053416    2394.6897   0.17705843    1.5044558  -0.21217159    1.2922843 
   51000    1.1074591    2394.6897   0.17705843    1.6572707  -0.24123774     1.416033 
   52000   0.97801986    2394.6897   0.17705843    1.4635698  -0.21117477     1.252395 
   53000    1.0026951    2394.6897   0.17705843    1.5004953  -0.20334892    1.2971464 
   54000   0.92237202    2394.6897   0.17705843    1.3802949  -0.21612557    1.1641694 
   55000    1.0200923    2394.6897   0.17705843    1.5265297  -0.23913663     1.287393 
   56000   0.96046744    2394.6897   0.17705843    1.4373033  -0.29234796    1.1449553 
   57000   0.95012637    2394.6897   0.17705843    1.4218283  -0.24003168    1.1817966 
   58000    1.0150665    2394.6897   0.17705843    1.5190088  -0.20575612    1.3132526 
   59000    1.0217556    2394.6897   0.17705843    1.5290187  -0.23616042    1.2928583 
   60000    1.0703318    2394.6897   0.17705843    1.6017111  -0.21853587    1.3831752 
   61000   0.98940258    2394.6897   0.17705843    1.4806036   -0.2015908    1.2790128 
   62000   0.99185515    2394.6897   0.17705843    1.4842738  -0.21387524    1.2703986 
   63000    1.0190338    2394.6897   0.17705843    1.5249456  -0.26205902    1.2628866 
   64000     0.941962    2394.6897   0.17705843    1.4096106  -0.23550554    1.1741051 
   65000    1.0807382    2394.6897   0.17705843    1.6172839  -0.21463742    1.4026465 
   66000   0.97724168    2394.6897   0.17705843    1.4624053   -0.2182041    1.2442012 
   67000    0.9956074    2394.6897   0.17705843    1.4898889  -0.25317868    1.2367102 
   68000    1.0345324    2394.6897   0.17705843    1.5481387  -0.19638748    1.3517512 
   69000   0.99827786    2394.6897   0.17705843    1.4938852  -0.21395102    1.2799341 
   70000   0.95794208    2394.6897   0.17705843    1.4335242  -0.23336421      1.20016 
   71000    1.0040646    2394.6897   0.17705843    1.5025448  -0.21798448    1.2845604 
   72000   0.95717668    2394.6897   0.17705843    1.4323788  -0.22742831    1.2049505 
   73000   0.94972262    2394.6897   0.17705843    1.4212241  -0.24557407      1.17565 
   74000    1.0869497    2394.6897   0.17705843    1.6265793  -0.24096306    1.3856162 
   75000   0.97491514    2394.6897   0.17705843    1.4589237  -0.22687042    1.2320533 
   76000     1.034681    2394.6897   0.17705843    1.5483611  -0.22357814    1.3247829 
   77000   0.98804544    2394.6897   0.17705843    1.4785727  -0.24287387    1.2356988 
   78000   0.99025438    2394.6897   0.17705843    1.4818783  -0.23301366    1.2488646 
   79000    1.0031288    2394.6897   0.17705843    1.5011443  -0.22581581    1.2753285 
   80000    1.0283528    2394.6897   0.17705843    1.5388911  -0.21246915     1.326422 
   81000    1.0120594    2394.6897   0.17705843    1.5145086   -0.2270447    1.2874639 
   82000   0.98807536    2394.6897   0.17705843    1.4786175   -0.2296368    1.2489807 
   83000     1.038724    2394.6897   0.17705843    1.5544113  -0.21478859    1.3396228 
   84000    0.9478397    2394.6897   0.17705843    1.4184063  -0.23710104    1.1813053 
   85000   0.96460474    2394.6897   0.17705843    1.4434946  -0.22917067    1.2143239 
   86000   0.98100641    2394.6897   0.17705843    1.4680391  -0.23194686    1.2360922 
   87000    1.0071116    2394.6897   0.17705843    1.5071045   -0.2052619    1.3018426 
   88000   0.99084686    2394.6897   0.17705843    1.4827649  -0.18650388    1.2962611 
   89000   0.98276435    2394.6897   0.17705843    1.4706698  -0.21649456    1.2541752 
   90000    1.0176995    2394.6897   0.17705843    1.5229488  -0.23044881       1.2925 
   91000    1.0153215    2394.6897   0.17705843    1.5193903  -0.21949652    1.2998938 
   92000    1.0749518    2394.6897   0.17705843    1.6086248  -0.22466669    1.3839581 
   93000    1.0157808    2394.6897   0.17705843    1.5200776  -0.25305523    1.2670223 
   94000   0.98149282    2394.6897   0.17705843     1.468767  -0.23077333    1.2379936 
   95000    1.0024931    2394.6897   0.17705843    1.5001931  -0.20425531    1.2959378 
   96000   0.96754574    2394.6897   0.17705843    1.4478957  -0.20817798    1.2397177 
   97000   0.97190812    2394.6897   0.17705843    1.4544238  -0.17690575    1.2775181 
   98000   0.99785396    2394.6897   0.17705843    1.4932508  -0.26022037    1.2330304 
   99000   0.99010259    2394.6897   0.17705843    1.4816512  -0.19635321    1.2852979 
  100000   0.99938878    2394.6897   0.17705843    1.4955476  -0.21321487    1.2823327 
  101000   0.97701093    2394.6897   0.17705843      1.46206  -0.20037445    1.2616855 
  102000   0.87110548    2394.6897   0.17705843    1.3035765  -0.21363645      1.08994 
  103000   0.97356162    2394.6897   0.17705843    1.4568982  -0.23333446    1.2235638 
  104000    1.0204114    2394.6897   0.17705843    1.5270072   -0.2428373    1.2841698 
  105000   0.96289724    2394.6897   0.17705843    1.4409394  -0.20655126    1.2343881 
  106000   0.94118091    2394.6897   0.17705843    1.4084417  -0.20980884    1.1986329 
  107000    1.0109245    2394.6897   0.17705843    1.5128104  -0.25937525    1.2534351 
  108000    1.0812413    2394.6897   0.17705843    1.6180369  -0.24059542    1.3774414 
  109000   0.92570685    2394.6897   0.17705843    1.3852854  -0.24819257    1.1370928 
  110000   0.98661284    2394.6897   0.17705843    1.4764289  -0.21391492     1.262514 
  111000    1.0255799    2394.6897   0.17705843    1.5347416  -0.23589938    1.2988422 
  112000    1.0503745    2394.6897   0.17705843    1.5718459   -0.2352307    1.3366152 
  113000     1.014972    2394.6897   0.17705843    1.5188673  -0.21432522    1.3045421 
  114000   0.93334815    2394.6897   0.17705843    1.3967203  -0.19847896    1.1982413 
  115000   0.96579755    2394.6897   0.17705843    1.4452796  -0.23803903    1.2072406 
  116000   0.91140724    2394.6897   0.17705843    1.3638865   -0.1998523    1.1640342 
  117000    1.0510561    2394.6897   0.17705843    1.5728658  -0.23601882     1.336847 
  118000   0.96884687    2394.6897   0.17705843    1.4498428  -0.25166179     1.198181 
  119000   0.97037147    2394.6897   0.17705843    1.4521243  -0.20529002    1.2468343 
  120000    1.0278666    2394.6897   0.17705843    1.5381636  -0.20606189    1.3321018 
  121000   0.99226909    2394.6897   0.17705843    1.4848932   -0.2009068    1.2839864 
  122000   0.97945449    2394.6897   0.17705843    1.4657167  -0.20378384    1.2619328 
  123000    1.0091877    2394.6897   0.17705843    1.5102114  -0.26191506    1.2482963 
  124000    1.0812097    2394.6897   0.17705843    1.6179895   -0.2666808    1.3513087 
  125000   0.95769859    2394.6897   0.17705843    1.4331598  -0.23832238    1.1948374 
  126000    1.0339036    2394.6897   0.17705843    1.5471978  -0.24499511    1.3022027 
  127000    1.0089592    2394.6897   0.17705843    1.5098694  -0.24277336    1.2670961 
  128000   0.89729145    2394.6897   0.17705843    1.3427628  -0.19895048    1.1438123 
  129000    1.0051569    2394.6897   0.17705843    1.5041794  -0.22360512    1.2805743 
  130000   0.99128338    2394.6897   0.17705843    1.4834182  -0.19131492    1.2921032 
  131000    0.9540237    2394.6897   0.17705843    1.4276605  -0.24616118    1.1814993 
  132000    1.0049578    2394.6897   0.17705843    1.5038815  -0.21580721    1.2880743 
  133000    1.0088018    2394.6897   0.17705843    1.5096339  -0.19257959    1.3170543 
  134000    1.0258298    2394.6897   0.17705843    1.5351156  -0.20396914    1.3311465 
  135000   0.98777021    2394.6897   0.17705843    1.4781609  -0.25457619    1.2235847 
  136000   0.98904682    2394.6897   0.17705843    1.4800712  -0.25887467    1.2211966 
  137000   0.99175316    2394.6897   0.17705843    1.4841212  -0.21460132    1.2695199 
  138000    1.0074714    2394.6897   0.17705843    1.5076429  -0.20600114    1.3016418 
  139000    1.0536998    2394.6897   0.17705843     1.576822  -0.24502003    1.3318019 
  140000   0.98324543    2394.6897   0.17705843    1.4713897  -0.21781125    1.2535784 
  141000    1.0164794    2394.6897   0.17705843     1.521123  -0.24595172    1.2751713 
  142000    1.0110941    2394.6897   0.17705843    1.5130641  -0.24723392    1.2658302 
  143000    1.0369076    2394.6897   0.17705843    1.5516931  -0.19930677    1.3523864 
  144000    1.0311181    2394.6897   0.17705843    1.5430293  -0.22840125     1.314628 
  145000    1.0177681    2394.6897   0.17705843    1.5230515  -0.20733574    1.3157158 
  146000   0.96210961    2394.6897   0.17705843    1.4397607  -0.25637468     1.183386 
  147000   0.98237352    2394.6897   0.17705843    1.4700849  -0.23945988     1.230625 
  148000    1.0240548    2394.6897   0.17705843    1.5324594  -0.23956416    1.2928952 
  149000    1.0028359    2394.6897   0.17705843     1.500706  -0.25765816    1.2430479 
  150000    1.0005157    2394.6897   0.17705843    1.4972339  -0.22780382    1.2694301 
  151000   0.99326093    2394.6897   0.17705843    1.4863775  -0.22479637    1.2615811 
  152000   0.97535382    2394.6897   0.17705843    1.4595802  -0.21856131    1.2410189 
  153000    1.0396394    2394.6897   0.17705843    1.5557811   -0.2004453    1.3553358 
  154000    0.9668683    2394.6897   0.17705843    1.4468819  -0.21795623    1.2289257 
  155000   0.98804032    2394.6897   0.17705843    1.4785651  -0.21025832    1.2683067 
  156000   0.96060716    2394.6897   0.17705843    1.4375124  -0.21742451    1.2200879 
  157000    0.9752946    2394.6897   0.17705843    1.4594916  -0.21524061     1.244251 
  158000    0.9806855    2394.6897   0.17705843    1.4675588  -0.20954158    1.2580173 
  159000   0.95529567    2394.6897   0.17705843    1.4295639  -0.22769614    1.2018678 
  160000   0.94169753    2394.6897   0.17705843    1.4092148  -0.22823885     1.180976 
  161000     1.027913    2394.6897   0.17705843    1.5382331  -0.23143165    1.3068014 
  162000   0.99619955    2394.6897   0.17705843     1.490775  -0.26180596    1.2289691 
  163000    0.9792606    2394.6897   0.17705843    1.4654265  -0.22092295    1.2445036 
  164000    1.0148561    2394.6897   0.17705843    1.5186939  -0.22296537    1.2957285 
  165000    1.0023868    2394.6897   0.17705843    1.5000341  -0.22468575    1.2753483 
  166000    1.0323541    2394.6897   0.17705843     1.544879  -0.21918669    1.3256923 
  167000   0.98420973    2394.6897   0.17705843    1.4728327  -0.23300175     1.239831 
  168000    1.0609325    2394.6897   0.17705843    1.5876454  -0.25432009    1.3333253 
  169000    1.0176084    2394.6897   0.17705843    1.5228126  -0.23447301    1.2883396 
  170000   0.96841041    2394.6897   0.17705843    1.4491896  -0.20376605    1.2454236 
  171000    1.0080099    2394.6897   0.17705843    1.5084488  -0.25796504    1.2504838 
  172000   0.96243046    2394.6897   0.17705843    1.4402409  -0.21823916    1.2220017 
  173000   0.99612336    2394.6897   0.17705843     1.490661  -0.26591286    1.2247482 
  174000   0.97624513    2394.6897   0.17705843     1.460914  -0.25096111    1.2099529 
  175000   0.96190422    2394.6897   0.17705843    1.4394534   -0.2335861    1.2058673 
  176000    1.0280675    2394.6897   0.17705843    1.5384642  -0.25901604    1.2794481 
  177000    1.0161221    2394.6897   0.17705843    1.5205883  -0.25006459    1.2705237 
  178000     0.985028    2394.6897   0.17705843    1.4740572  -0.24170537    1.2323519 
  179000    1.0073111    2394.6897   0.17705843    1.5074031  -0.23908663    1.2683165 
  180000   0.96393439    2394.6897   0.17705843    1.4424914  -0.23974958    1.2027418 
  181000   0.98522356    2394.6897   0.17705843    1.4743499  -0.22510726    1.2492426 
  182000    1.0152418    2394.6897   0.17705843     1.519271  -0.23011576    1.2891553 
  183000   0.95900245    2394.6897   0.17705843     1.435111  -0.20220006    1.2329109 
  184000    1.0163869    2394.6897   0.17705843    1.5209846  -0.21471131    1.3062733 
  185000   0.99759969    2394.6897   0.17705843    1.4928703  -0.24244079    1.2504295 
  186000    1.0454008    2394.6897   0.17705843    1.5644029  -0.23892148    1.3254814 
  187000    0.9934253    2394.6897   0.17705843    1.4866235  -0.21620896    1.2704145 
  188000   0.94070018    2394.6897   0.17705843    1.4077223  -0.17419091    1.2335314 
  189000   0.96818498    2394.6897   0.17705843    1.4488523   -0.2425352    1.2063171 
  190000   0.98943356    2394.6897   0.17705843      1.48065  -0.21045465    1.2701953 
  191000    1.0035835    2394.6897   0.17705843    1.5018249  -0.21522761    1.2865973 
  192000   0.88462121    2394.6897   0.17705843    1.3238023   -0.2468732    1.0769291 
  193000   0.99923618    2394.6897   0.17705843    1.4953192  -0.25540908    1.2399101 
  194000   0.96946817    2394.6897   0.17705843    1.4507725  -0.23684809    1.2139244 
  195000   0.99524222    2394.6897   0.17705843    1.4893424  -0.17691456    1.3124279 
  196000    1.0572285    2394.6897   0.17705843    1.5821026  -0.18216565    1.3999369 
  197000   0.96992947    2394.6897   0.17705843    1.4514629  -0.21707847    1.2343844 
  198000   0.94631676    2394.6897   0.17705843    1.4161273  -0.25063191    1.1654954 
  199000    1.0178797    2394.6897   0.17705843    1.5232185  -0.22906808    1.2941505 
  200000   0.97315298    2394.6897   0.17705843    1.4562867  -0.20216261    1.2541241 
Loop time of 583.411 on 4 procs for 200000 steps with 424 atoms

Pair  time (%) = 176.293 (30.2177)
Kspce time (%) = 370.692 (63.5388)
Neigh time (%) = 10.2771 (1.76156)
Comm  time (%) = 16.7162 (2.86526)
Outpt time (%) = 0.451289 (0.0773537)
Other time (%) = 8.98066 (1.53934)

Nlocal:    106 ave 109 max 102 min
Histogram: 1 0 0 0 1 0 0 0 1 1
Nghost:    562.5 ave 570 max 557 min
Histogram: 1 0 0 2 0 0 0 0 0 1
Neighs:    9719.5 ave 10291 max 9344 min
Histogram: 1 0 1 1 0 0 0 0 0 1

Total # of neighbors = 38878
Ave neighs/atom = 91.6934
Neighbor list builds = 15009
Dangerous builds = 0
System init for write_restart ...
PPPMDisp initialization ...
WARNING: Table inner cutoff >= outer cutoff (../pair.cpp:1607)
WARNING: Table inner cutoff >= outer cutoff (../pair.cpp:1607)
WARNING: Table inner cutoff >= outer cutoff (../pair.cpp:1607)
WARNING: Table inner cutoff >= outer cutoff (../pair.cpp:1607)
  Coulomb G vector (1/distance)= 0.359897
  Coulomb grid = 18 18 12
  Coulomb stencil order = 5
  Coulomb estimated absolute RMS force accuracy = 0.000101278
  Coulomb estimated relative force accuracy = 0.000101278
  using double precision FFTs
  3d grid and FFT values/proc = 2744 972
WARNING: Table inner cutoff >= outer cutoff (../pair.cpp:1607)
WARNING: Table inner cutoff >= outer cutoff (../pair.cpp:1607)
WARNING: Table inner cutoff >= outer cutoff (../pair.cpp:1607)
WARNING: Table inner cutoff >= outer cutoff (../pair.cpp:1607)
PPPMDisp initialization ...
WARNING: Table inner cutoff >= outer cutoff (../pair.cpp:1607)
WARNING: Table inner cutoff >= outer cutoff (../pair.cpp:1607)
WARNING: Table inner cutoff >= outer cutoff (../pair.cpp:1607)
WARNING: Table inner cutoff >= outer cutoff (../pair.cpp:1607)
  Coulomb G vector (1/distance)= 0.359897
  Coulomb grid = 18 18 12
  Coulomb stencil order = 5
  Coulomb estimated absolute RMS force accuracy = 0.000101278
  Coulomb estimated relative force accuracy = 0.000101278
  using double precision FFTs
  3d grid and FFT values/proc = 2744 972
WARNING: Table inner cutoff >= outer cutoff (../pair.cpp:1607)
WARNING: Table inner cutoff >= outer cutoff (../pair.cpp:1607)
WARNING: Table inner cutoff >= outer cutoff (../pair.cpp:1607)
WARNING: Table inner cutoff >= outer cutoff (../pair.cpp:1607)
Setting up run ...
Memory usage per processor = 4.43377 Mbytes
Step Temp Volume Density KinEng PotEng TotEng 
  200000   0.97315298    2394.6897   0.17705843    1.4562867  -0.20216261    1.2541241 
  201000   0.96482544    2394.6897   0.17705843    1.4438249  -0.25326507    1.1905598 
  202000    0.9943479    2394.6897   0.17705843    1.4880041  -0.25771002    1.2302941 
  203000   0.94749105    2394.6897   0.17705843    1.4178846  -0.22116635    1.1967183 
  204000    1.0463324    2394.6897   0.17705843    1.5657969  -0.20268834    1.3631086 
  205000   0.94725892    2394.6897   0.17705843    1.4175372  -0.27057174    1.1469655 
  206000   0.96995241    2394.6897   0.17705843    1.4514972  -0.22491892    1.2265783 
  207000   0.93835092    2394.6897   0.17705843    1.4042067  -0.23152422    1.1726825 
  208000   0.97379086    2394.6897   0.17705843    1.4572413  -0.20539094    1.2518503 
  209000   0.95911609    2394.6897   0.17705843     1.435281  -0.22962269    1.2056583 
  210000    1.0019166    2394.6897   0.17705843    1.4993303  -0.21891946    1.2804109 
  211000    1.0357662    2394.6897   0.17705843     1.549985   -0.1997787    1.3502063 
  212000    1.1149474    2394.6897   0.17705843    1.6684767  -0.20455569     1.463921 
  213000    1.0181227    2394.6897   0.17705843    1.5235821  -0.24122439    1.2823577 
  214000   0.99360661    2394.6897   0.17705843    1.4868948  -0.22116517    1.2657296 
  215000   0.99732149    2394.6897   0.17705843     1.492454  -0.20639446    1.2860595 
  216000   0.95959735    2394.6897   0.17705843    1.4360012  -0.21926143    1.2167398 
  217000    1.0243022    2394.6897   0.17705843    1.5328296    -0.204162    1.3286676 
  218000    1.0414317    2394.6897   0.17705843    1.5584632  -0.22541554    1.3330476 
  219000    1.0215627    2394.6897   0.17705843      1.52873  -0.26346961    1.2652604 
  220000   0.99111695    2394.6897   0.17705843    1.4831691  -0.23870562    1.2444635 
  221000    1.0167337    2394.6897   0.17705843    1.5215037  -0.22677508    1.2947286 
  222000    0.9683289    2394.6897   0.17705843    1.4490677  -0.26233994    1.1867277 
  223000    1.0704445    2394.6897   0.17705843    1.6018798  -0.21075049    1.3911293 
  224000   0.98074762    2394.6897   0.17705843    1.4676518  -0.24501685     1.222635 
  225000   0.97378155    2394.6897   0.17705843    1.4572273  -0.23700006    1.2202273 
  226000    0.9562682    2394.6897   0.17705843    1.4310193  -0.20618348    1.2248358 
  227000     1.034432    2394.6897   0.17705843    1.5479885  -0.23042012    1.3175683 
  228000    1.0123613    2394.6897   0.17705843    1.5149605    -0.251806    1.2631545 
  229000    1.0031706    2394.6897   0.17705843    1.5012069  -0.21088352    1.2903234 
  230000    1.0185236    2394.6897   0.17705843    1.5241821  -0.21062338    1.3135587 
  231000   0.98916632    2394.6897   0.17705843    1.4802501  -0.24700493    1.2332451 
  232000   0.95349295    2394.6897   0.17705843    1.4268662  -0.21900108    1.2078651 
  233000    0.9617387    2394.6897   0.17705843    1.4392057  -0.19960267     1.239603 
  234000    1.0399108    2394.6897   0.17705843    1.5561873  -0.18677681    1.3694105 
  235000    1.0321338    2394.6897   0.17705843    1.5445493    -0.209567    1.3349824 
  236000    1.0486083    2394.6897   0.17705843    1.5692027   -0.2398525    1.3293502 
  237000   0.93478508    2394.6897   0.17705843    1.3988706  -0.21288907    1.1859815 
  238000    1.0263037    2394.6897   0.17705843    1.5358247  -0.21618174     1.319643 
  239000    0.9249743    2394.6897   0.17705843    1.3841891  -0.23931426    1.1448749 
  240000   0.94975336    2394.6897   0.17705843    1.4212701  -0.26177939    1.1594907 
  241000    1.0095908    2394.6897   0.17705843    1.5108145  -0.23576161    1.2750529 
  242000    1.0244847    2394.6897   0.17705843    1.5331027  -0.23019662    1.3029061 
  243000    1.0185677    2394.6897   0.17705843    1.5242482  -0.21264774    1.3116004 
  244000    1.0019082    2394.6897   0.17705843    1.4993178  -0.23990321    1.2594146 
  245000    1.0063277    2394.6897   0.17705843    1.5059314  -0.21010667    1.2958248 
  246000   0.96447393    2394.6897   0.17705843    1.4432988  -0.24485246    1.1984464 
  247000   0.91020123    2394.6897   0.17705843    1.3620818  -0.26398329    1.0980985 
  248000    1.1224481    2394.6897   0.17705843    1.6797012   -0.1903587    1.4893425 
  249000      1.00417    2394.6897   0.17705843    1.5027025  -0.22040213    1.2823004 
  250000    0.9155218    2394.6897   0.17705843    1.3700438  -0.22503104    1.1450128 
  251000     1.017544    2394.6897   0.17705843    1.5227161  -0.22457686    1.2981393 
  252000    1.0523329    2394.6897   0.17705843    1.5747764  -0.22856677    1.3462097 
  253000    1.0632891    2394.6897   0.17705843     1.591172  -0.19759108    1.3935809 
  254000    1.0413477    2394.6897   0.17705843    1.5583376  -0.22282288    1.3355147 
  255000   0.99362521    2394.6897   0.17705843    1.4869226  -0.25704159     1.229881 
  256000   0.96884558    2394.6897   0.17705843    1.4498409  -0.23700265    1.2128382 
  257000   0.97764677    2394.6897   0.17705843    1.4630115  -0.24983919    1.2131723 
  258000    1.0331769    2394.6897   0.17705843    1.5461103  -0.24950756    1.2966027 
  259000   0.99563226    2394.6897   0.17705843    1.4899261   -0.2539761      1.23595 
  260000   0.88486102    2394.6897   0.17705843    1.3241611  -0.23090055    1.0932606 
  261000   0.99995684    2394.6897   0.17705843    1.4963977  -0.24240133    1.2539963 
  262000   0.96475758    2394.6897   0.17705843    1.4437233  -0.18162667    1.2620967 
  263000     0.997096    2394.6897   0.17705843    1.4921165  -0.17518556     1.316931 
  264000    1.0809331    2394.6897   0.17705843    1.6175756  -0.20877426    1.4088014 
  265000   0.99548852    2394.6897   0.17705843     1.489711  -0.25067053    1.2390405 
  266000   0.92453301    2394.6897   0.17705843    1.3835288  -0.22450109    1.1590277 
  267000   0.98023432    2394.6897   0.17705843    1.4668837  -0.26530372    1.2015799 
  268000    1.0221811    2394.6897   0.17705843    1.5296554  -0.21737853    1.3122769 
  269000     1.025187    2394.6897   0.17705843    1.5341536  -0.16926642    1.3648872 
  270000    1.0435966    2394.6897   0.17705843     1.561703   -0.2120198    1.3496832 
  271000    1.0158094    2394.6897   0.17705843    1.5201204  -0.18547123    1.3346492 
  272000   0.97303558    2394.6897   0.17705843     1.456111  -0.19925994    1.2568511 
  273000   0.95308673    2394.6897   0.17705843    1.4262583  -0.24094567    1.1853127 
  274000    0.9990943    2394.6897   0.17705843    1.4951069  -0.25960943    1.2354975 
  275000    1.0002861    2394.6897   0.17705843    1.4968904  -0.19143902    1.3054514 
  276000    1.0242806    2394.6897   0.17705843    1.5327972  -0.27103118     1.261766 
  277000   0.98424409    2394.6897   0.17705843    1.4728841   -0.2086819    1.2642022 
  278000   0.97027143    2394.6897   0.17705843    1.4519746  -0.24573374    1.2062408 
  279000    1.0962583    2394.6897   0.17705843    1.6405092  -0.26120787    1.3793013 
  280000    1.0050146    2394.6897   0.17705843    1.5039665  -0.18241886    1.3215476 
  281000   0.98652038    2394.6897   0.17705843    1.4762905  -0.22697103    1.2493195 
  282000    1.0635333    2394.6897   0.17705843    1.5915374  -0.25115953    1.3403779 
  283000    1.0114604    2394.6897   0.17705843    1.5136123  -0.23635145    1.2772608 
  284000   0.97446854    2394.6897   0.17705843    1.4582554  -0.23138113    1.2268743 
  285000    1.0205795    2394.6897   0.17705843    1.5272587  -0.22490784    1.3023509 
  286000    0.9836704    2394.6897   0.17705843    1.4720256  -0.22637826    1.2456474 
  287000   0.97070568    2394.6897   0.17705843    1.4526244  -0.22143603    1.2311884 
  288000     1.044722    2394.6897   0.17705843    1.5633871  -0.21239872    1.3509884 
  289000    1.0536548    2394.6897   0.17705843    1.5767546  -0.21355627    1.3631983 
  290000   0.92011471    2394.6897   0.17705843    1.3769169  -0.22100054    1.1559164 
  291000   0.95572922    2394.6897   0.17705843    1.4302127  -0.24533967     1.184873 
  292000   0.99686639    2394.6897   0.17705843    1.4917729  -0.22466364    1.2671093 
  293000   0.99837077    2394.6897   0.17705843    1.4940242  -0.20239614     1.291628 
  294000     1.012056    2394.6897   0.17705843    1.5145036  -0.20873446    1.3057691 
  295000    1.0313887    2394.6897   0.17705843    1.5434343  -0.24511458    1.2983197 
  296000   0.94006029    2394.6897   0.17705843    1.4067647  -0.23004276     1.176722 
  297000    1.0013918    2394.6897   0.17705843     1.498545  -0.24408426    1.2544608 
  298000    1.0120814    2394.6897   0.17705843    1.5145416   -0.2464965    1.2680451 
  299000    1.0615284    2394.6897   0.17705843    1.5885372  -0.19839519     1.390142 
  300000   0.94918565    2394.6897   0.17705843    1.4204205  -0.24109625    1.1793242 
  301000   0.99612419    2394.6897   0.17705843    1.4906623  -0.20915589    1.2815064 
  302000   0.97864763    2394.6897   0.17705843    1.4645093  -0.26139048    1.2031188 
  303000    1.0209145    2394.6897   0.17705843      1.52776  -0.21192597     1.315834 
  304000    1.0214606    2394.6897   0.17705843    1.5285772  -0.16866959    1.3599076 
  305000    1.0018536    2394.6897   0.17705843    1.4992362  -0.18250437    1.3167318 
  306000   0.96722096    2394.6897   0.17705843    1.4474097  -0.24267744    1.2047322 
  307000   0.94748634    2394.6897   0.17705843    1.4178775   -0.2084204    1.2094572 
  308000   0.91160158    2394.6897   0.17705843    1.3641774  -0.20988779    1.1542896 
  309000   0.97940702    2394.6897   0.17705843    1.4656457  -0.16632438    1.2993213 
  310000    1.0687745    2394.6897   0.17705843    1.5993806  -0.19031112    1.4090695 
  311000    0.9673224    2394.6897   0.17705843    1.4475615  -0.26077125    1.1867902 
  312000    1.0246547    2394.6897   0.17705843    1.5333571  -0.23777399    1.2955832 
  313000    1.0181136    2394.6897   0.17705843    1.5235685  -0.17966896    1.3438996 
  314000     1.004721    2394.6897   0.17705843    1.5035271  -0.22338085    1.2801463 
  315000    1.0438756    2394.6897   0.17705843    1.5621205  -0.23552982    1.3265906 
  316000   0.99486484    2394.6897   0.17705843    1.4887777  -0.17654839    1.3122293 
  317000   0.98250707    2394.6897   0.17705843    1.4702847   -0.2493422    1.2209425 
  318000   0.97140634    2394.6897   0.17705843    1.4536729  -0.24300799    1.2106649 
  319000    1.0584089    2394.6897   0.17705843     1.583869  -0.23307271    1.3507963 
  320000    1.0344943    2394.6897   0.17705843    1.5480817   -0.1972598    1.3508219 
  321000   0.96823596    2394.6897   0.17705843    1.4489286  -0.20380235    1.2451262 
  322000    1.0148696    2394.6897   0.17705843     1.518714  -0.20202933    1.3166847 
  323000   0.96219677    2394.6897   0.17705843    1.4398912  -0.21871319     1.221178 
  324000    1.0102792    2394.6897   0.17705843    1.5118448  -0.21402935    1.2978154 
  325000    1.0069166    2394.6897   0.17705843    1.5068126  -0.21183938    1.2949732 
  326000   0.94014638    2394.6897   0.17705843    1.4068936  -0.21377901    1.1931146 
  327000    1.0106059    2394.6897   0.17705843    1.5123336  -0.24291001    1.2694236 
  328000    1.0038675    2394.6897   0.17705843    1.5022498  -0.21815382     1.284096 
  329000    1.0199806    2394.6897   0.17705843    1.5263625   -0.2125883    1.3137742 
  330000   0.95879881    2394.6897   0.17705843    1.4348062    -0.201565    1.2332412 
  331000    1.0106535    2394.6897   0.17705843    1.5124048   -0.2281647    1.2842401 
  332000    1.0119002    2394.6897   0.17705843    1.5142704  -0.20633697    1.3079335 
  333000    1.0972771    2394.6897   0.17705843    1.6420337  -0.19384189    1.4481918 
  334000    1.0166317    2394.6897   0.17705843     1.521351  -0.23538112    1.2859698 
  335000   0.97353528    2394.6897   0.17705843    1.4568588  -0.24285527    1.2140035 
  336000   0.95959514    2394.6897   0.17705843    1.4359979  -0.20424573    1.2317522 
  337000    1.0669401    2394.6897   0.17705843    1.5966356  -0.23533108    1.3613045 
  338000   0.94410747    2394.6897   0.17705843    1.4128212  -0.21950977    1.1933114 
  339000    1.0236612    2394.6897   0.17705843    1.5318703  -0.25027322    1.2815971 
  340000   0.92893125    2394.6897   0.17705843    1.3901106  -0.18121338    1.2088972 
  341000   0.96337462    2394.6897   0.17705843    1.4416538  -0.24816415    1.1934896 
  342000    1.0343251    2394.6897   0.17705843    1.5478284  -0.22280352    1.3250249 
  343000    1.0490559    2394.6897   0.17705843    1.5698726  -0.21967649    1.3501961 
  344000   0.94088416    2394.6897   0.17705843    1.4079976  -0.23657946    1.1714182 
  345000    0.9868403    2394.6897   0.17705843    1.4767693  -0.22692231     1.249847 
  346000   0.91678349    2394.6897   0.17705843    1.3719319  -0.23942001    1.1325119 
  347000    1.0072908    2394.6897   0.17705843    1.5073727  -0.23730392    1.2700688 
  348000   0.97915765    2394.6897   0.17705843    1.4652725  -0.21191271    1.2533598 
  349000   0.95228596    2394.6897   0.17705843      1.42506  -0.24364734    1.1814127 
  350000   0.99564387    2394.6897   0.17705843    1.4899435  -0.24140579    1.2485377 
  351000    1.0517629    2394.6897   0.17705843    1.5739234  -0.29251845     1.281405 
  352000    1.0117751    2394.6897   0.17705843    1.5140833  -0.21450915    1.2995741 
  353000    1.0477949    2394.6897   0.17705843    1.5679855   -0.2122655      1.35572 
  354000    1.0231379    2394.6897   0.17705843    1.5310873  -0.22964633    1.3014409 
  355000    1.0556666    2394.6897   0.17705843    1.5797652  -0.20050841    1.3792568 
  356000   0.93866064    2394.6897   0.17705843    1.4046702  -0.22456914    1.1801011 
  357000    0.9699904    2394.6897   0.17705843     1.451554  -0.22393197    1.2276221 
  358000    1.0184257    2394.6897   0.17705843    1.5240356  -0.21247025    1.3115654 
  359000    1.0177539    2394.6897   0.17705843    1.5230303  -0.20885971    1.3141706 
  360000   0.93167107    2394.6897   0.17705843    1.3942106  -0.21276672    1.1814439 
  361000    1.0124595    2394.6897   0.17705843    1.5151075  -0.22509233    1.2900151 
  362000    1.0060593    2394.6897   0.17705843    1.5055298  -0.21468675     1.290843 
  363000   0.99195777    2394.6897   0.17705843    1.4844274   -0.2200813    1.2643461 
  364000   0.97231185    2394.6897   0.17705843     1.455028  -0.21423857    1.2407894 
  365000   0.92422295    2394.6897   0.17705843    1.3830648  -0.20629311    1.1767717 
  366000   0.95324552    2394.6897   0.17705843    1.4264959  -0.23711208    1.1893839 
  367000   0.98498215    2394.6897   0.17705843    1.4739886   -0.2413735    1.2326151 
  368000   0.96885204    2394.6897   0.17705843    1.4498505  -0.24684243    1.2030081 
  369000    1.0071152    2394.6897   0.17705843    1.5071099  -0.26134277    1.2457671 
  370000   0.99287004    2394.6897   0.17705843    1.4857925  -0.20380751     1.281985 
  371000   0.99055534    2394.6897   0.17705843    1.4823287  -0.26460994    1.2177188 
  372000    1.0412599    2394.6897   0.17705843    1.5582061  -0.21971352    1.3384926 
  373000   0.97806094    2394.6897   0.17705843    1.4636313  -0.19428625     1.269345 
  374000   0.97823046    2394.6897   0.17705843     1.463885  -0.19098555    1.2728994 
  375000   0.91535693    2394.6897   0.17705843    1.3697971  -0.20576165    1.1640355 
  376000    1.0329967    2394.6897   0.17705843    1.5458406  -0.25384824    1.2919924 
  377000    1.0219109    2394.6897   0.17705843    1.5292511  -0.24959193    1.2796591 
  378000   0.90789247    2394.6897   0.17705843    1.3586268  -0.21899797    1.1396288 
  379000    1.0232154    2394.6897   0.17705843    1.5312032  -0.20544827     1.325755 
  380000    1.0360571    2394.6897   0.17705843    1.5504203  -0.21661085    1.3338094 
  381000   0.99978175    2394.6897   0.17705843    1.4961357  -0.27148188    1.2246538 
  382000   0.96864976    2394.6897   0.17705843    1.4495478  -0.23777683     1.211771 
  383000    1.0364164    2394.6897   0.17705843    1.5509581   -0.1948084    1.3561497 
  384000    1.0135016    2394.6897   0.17705843    1.5166669  -0.21048043    1.3061865 
  385000     1.053874    2394.6897   0.17705843    1.5770827  -0.21380501    1.3632777 
  386000    1.0227218    2394.6897   0.17705843    1.5304645  -0.24691587    1.2835486 
  387000    1.0776714    2394.6897   0.17705843    1.6126946  -0.24580464      1.36689 
  388000   0.96824293    2394.6897   0.17705843     1.448939  -0.19555903      1.25338 
  389000   0.99772891    2394.6897   0.17705843    1.4930637  -0.22136486    1.2716988 
  390000    1.0122835    2394.6897   0.17705843    1.5148441  -0.20495175    1.3098923 
  391000    1.0024994    2394.6897   0.17705843    1.5002026  -0.22640359     1.273799 
  392000    1.0416462    2394.6897   0.17705843    1.5587843  -0.21396121     1.344823 
  393000    1.0105013    2394.6897   0.17705843    1.5121771  -0.23901688    1.2731602 
  394000   0.99791516    2394.6897   0.17705843    1.4933424  -0.21198396    1.2813584 
  395000    1.0304786    2394.6897   0.17705843    1.5420723  -0.19688686    1.3451855 
  396000   0.95123543    2394.6897   0.17705843    1.4234879  -0.19072411    1.2327638 
  397000   0.99568001    2394.6897   0.17705843    1.4899976  -0.20184177    1.2881558 
  398000    1.0215633    2394.6897   0.17705843     1.528731  -0.20395061    1.3247804 
  399000    0.9820766    2394.6897   0.17705843    1.4696406  -0.21950554     1.250135 
  400000   0.90632493    2394.6897   0.17705843    1.3562811  -0.25113554    1.1051455 
  401000    1.0257033    2394.6897   0.17705843    1.5349263  -0.23051552    1.3044108 
  402000    1.0653138    2394.6897   0.17705843    1.5942019  -0.23540749    1.3587944 
  403000    1.0122005    2394.6897   0.17705843    1.5147199   -0.1855542    1.3291657 
  404000    1.0320917    2394.6897   0.17705843    1.5444863  -0.19161864    1.3528677 
  405000    1.0263514    2394.6897   0.17705843    1.5358962  -0.21317129    1.3227249 
  406000   0.94516629    2394.6897   0.17705843    1.4144057  -0.23618275    1.1782229 
  407000    1.0713866    2394.6897   0.17705843    1.6032896    -0.293652    1.3096376 
  408000   0.98953837    2394.6897   0.17705843    1.4808068  -0.21127878     1.269528 
  409000   0.98797872    2394.6897   0.17705843    1.4784729   -0.1938885    1.2845844 
  410000   0.99733866    2394.6897   0.17705843    1.4924797  -0.23157975    1.2608999 
  411000   0.94006638    2394.6897   0.17705843    1.4067739  -0.22596431    1.1808095 
  412000   0.97642611    2394.6897   0.17705843    1.4611848  -0.20535856    1.2558263 
  413000   0.99239631    2394.6897   0.17705843    1.4850836  -0.20652056    1.2785631 
  414000    1.0633856    2394.6897   0.17705843    1.5913164  -0.19322581    1.3980906 
  415000   0.94926913    2394.6897   0.17705843    1.4205454  -0.22184338    1.1987021 
  416000    1.0392218    2394.6897   0.17705843    1.5551562  -0.23749704    1.3176592 
  417000    1.0354409    2394.6897   0.17705843    1.5494983  -0.22806938    1.3214289 
  418000    1.0672273    2394.6897   0.17705843    1.5970654  -0.18303181    1.4140336 
  419000   0.99457559    2394.6897   0.17705843    1.4883448  -0.23883196    1.2495129 
  420000   0.99211564    2394.6897   0.17705843    1.4846636  -0.16859364      1.31607 
  421000    1.0038888    2394.6897   0.17705843    1.5022817  -0.24011666    1.2621651 
  422000    1.0326146    2394.6897   0.17705843    1.5452688  -0.21806072    1.3272081 
  423000    1.0227582    2394.6897   0.17705843     1.530519  -0.23981308    1.2907059 
  424000    1.0244553    2394.6897   0.17705843    1.5330586  -0.23833714    1.2947215 
  425000   0.95862318    2394.6897   0.17705843    1.4345434  -0.22315849    1.2113849 
  426000   0.95887941    2394.6897   0.17705843    1.4349269  -0.20122922    1.2336976 
  427000    0.9926185    2394.6897   0.17705843    1.4854161  -0.26510347    1.2203127 
  428000    1.0413931    2394.6897   0.17705843    1.5584055  -0.21255052     1.345855 
  429000   0.98708469    2394.6897   0.17705843     1.477135  -0.22185656    1.2552784 
  430000   0.95163319    2394.6897   0.17705843    1.4240832  -0.21276967    1.2113135 
  431000   0.97698609    2394.6897   0.17705843    1.4620228  -0.21781461    1.2442082 
  432000   0.94171546    2394.6897   0.17705843    1.4092416  -0.26458788    1.1446538 
  433000   0.96678658    2394.6897   0.17705843    1.4467596  -0.23108245    1.2156772 
  434000    1.0253147    2394.6897   0.17705843    1.5343447  -0.23441486    1.2999298 
  435000   0.91914578    2394.6897   0.17705843     1.375467   -0.2120282    1.1634388 
  436000   0.90431078    2394.6897   0.17705843     1.353267  -0.25547548    1.0977915 
  437000   0.98209973    2394.6897   0.17705843    1.4696752  -0.22325792    1.2464173 
  438000     1.004198    2394.6897   0.17705843    1.5027444  -0.21553117    1.2872133 
  439000    1.0486866    2394.6897   0.17705843    1.5693199  -0.22315401    1.3461659 
  440000    1.0501128    2394.6897   0.17705843    1.5714541  -0.15778554    1.4136686 
  441000    1.0253416    2394.6897   0.17705843     1.534385   -0.2170241    1.3173609 
  442000    1.0268262    2394.6897   0.17705843    1.5366066  -0.19376017    1.3428464 
  443000   0.96675151    2394.6897   0.17705843    1.4467072  -0.27934789    1.1673593 
  444000     1.037436    2394.6897   0.17705843    1.5524838  -0.25074694    1.3017369 
  445000    1.0350136    2394.6897   0.17705843    1.5488587  -0.21745108    1.3314077 
  446000   0.96173198    2394.6897   0.17705843    1.4391956  -0.25177089    1.1874247 
  447000   0.94774948    2394.6897   0.17705843    1.4182713   -0.1931132    1.2251581 
  448000    1.0349801    2394.6897   0.17705843    1.5488087  -0.23571957    1.3130891 
  449000    0.9741289    2394.6897   0.17705843    1.4577471  -0.21283998    1.2449072 
  450000   0.94674672    2394.6897   0.17705843    1.4167707  -0.23885753    1.1779132 
  451000    1.0713686    2394.6897   0.17705843    1.6032626  -0.22961083    1.3736518 
  452000   0.99417281    2394.6897   0.17705843    1.4877421  -0.24323028    1.2445118 
  453000   0.97834769    2394.6897   0.17705843    1.4640604  -0.21389964    1.2501608 
  454000    1.0630184    2394.6897   0.17705843     1.590767   -0.1799277    1.4108393 
  455000     0.998001    2394.6897   0.17705843    1.4934708  -0.20938991    1.2840809 
  456000   0.96059318    2394.6897   0.17705843    1.4374914  -0.21826131    1.2192301 
  457000    1.1254577    2394.6897   0.17705843    1.6842049  -0.23899609    1.4452088 
  458000    0.9937109    2394.6897   0.17705843    1.4870509  -0.21180162    1.2752492 
  459000    1.0310077    2394.6897   0.17705843    1.5428641   -0.2072689    1.3355952 
  460000     1.030412    2394.6897   0.17705843    1.5419727  -0.20669928    1.3352734 
  461000   0.96473698    2394.6897   0.17705843    1.4436925  -0.27403573    1.1696567 
  462000    1.0268388    2394.6897   0.17705843    1.5366255  -0.26014792    1.2764776 
  463000    1.0498795    2394.6897   0.17705843    1.5711051  -0.22700661    1.3440985 
  464000    1.0472312    2394.6897   0.17705843    1.5671419  -0.20302754    1.3641144 
  465000   0.95321995    2394.6897   0.17705843    1.4264577  -0.19306563     1.233392 
  466000   0.93178608    2394.6897   0.17705843    1.3943827  -0.24448311    1.1498996 
  467000    1.0377643    2394.6897   0.17705843    1.5529751  -0.23965681    1.3133183 
  468000   0.98788616    2394.6897   0.17705843    1.4783344  -0.22304443    1.2552899 
  469000   0.99969448    2394.6897   0.17705843    1.4960051  -0.21842653    1.2775785 
  470000   0.99753863    2394.6897   0.17705843    1.4927789  -0.18664069    1.3061382 
  471000    1.0209558    2394.6897   0.17705843    1.5278219  -0.20668698    1.3211349 
  472000   0.96579351    2394.6897   0.17705843    1.4452735   -0.2509097    1.1943638 
  473000   0.98889894    2394.6897   0.17705843      1.47985  -0.24562827    1.2342217 
  474000   0.93355289    2394.6897   0.17705843    1.3970267  -0.23879889    1.1582278 
  475000     1.005434    2394.6897   0.17705843    1.5045941  -0.20773202    1.2968621 
  476000    1.0018113    2394.6897   0.17705843    1.4991729  -0.22292819    1.2762447 
  477000   0.92734643    2394.6897   0.17705843    1.3877389  -0.23721708    1.1505219 
  478000   0.99868396    2394.6897   0.17705843    1.4944929  -0.24674184     1.247751 
  479000   0.97763866    2394.6897   0.17705843    1.4629994  -0.22353546    1.2394639 
  480000   0.99210567    2394.6897   0.17705843    1.4846487  -0.21374163    1.2709071 
  481000    1.0801719    2394.6897   0.17705843    1.6164365  -0.24567952     1.370757 
  482000    1.0168977    2394.6897   0.17705843    1.5217491  -0.21628995    1.3054591 
  483000   0.95039774    2394.6897   0.17705843    1.4222343  -0.22054164    1.2016927 
  484000   0.95760081    2394.6897   0.17705843    1.4330135  -0.19359401    1.2394195 
  485000   0.97006604    2394.6897   0.17705843    1.4516672  -0.26083063    1.1908366 
  486000   0.94290365    2394.6897   0.17705843    1.4110197  -0.21578041    1.1952393 
  487000   0.97390732    2394.6897   0.17705843    1.4574155  -0.24357583    1.2138397 
  488000   0.99253601    2394.6897   0.17705843    1.4852927  -0.26467762    1.2206151 
  489000    1.0663618    2394.6897   0.17705843    1.5957703  -0.24154346    1.3542268 
  490000    1.0134137    2394.6897   0.17705843    1.5165353  -0.23755183    1.2789835 
  491000   0.97845748    2394.6897   0.17705843    1.4642247  -0.25166402    1.2125607 
  492000   0.99976244    2394.6897   0.17705843    1.4961068  -0.19946937    1.2966374 
  493000   0.99810191    2394.6897   0.17705843    1.4936218   -0.2622362    1.2313856 
  494000   0.99007511    2394.6897   0.17705843      1.48161  -0.17589085    1.3057192 
  495000    1.0484601    2394.6897   0.17705843    1.5689809  -0.25901035    1.3099706 
  496000   0.98033883    2394.6897   0.17705843    1.4670401  -0.22270653    1.2443335 
  497000   0.97194784    2394.6897   0.17705843    1.4544833  -0.24342849    1.2110548 
  498000    1.0064488    2394.6897   0.17705843    1.5061127  -0.23907656    1.2670361 
  499000    1.0281317    2394.6897   0.17705843    1.5385603  -0.19702201    1.3415383 
  500000   0.96066966    2394.6897   0.17705843    1.4376059  -0.22807498    1.2095309 
  501000    1.0267451    2394.6897   0.17705843    1.5364853  -0.23977849    1.2967068 
  502000   0.97100093    2394.6897   0.17705843    1.4530662  -0.22955838    1.2235079 
  503000    1.0053597    2394.6897   0.17705843    1.5044829  -0.22921285    1.2752701 
  504000    1.0102585    2394.6897   0.17705843    1.5118137  -0.23959233    1.2722214 
  505000    1.0293876    2394.6897   0.17705843    1.5404397  -0.26220434    1.2782353 
  506000    1.0042134    2394.6897   0.17705843    1.5027674  -0.21021332    1.2925541 
  507000   0.96346491    2394.6897   0.17705843    1.4417889  -0.24613134    1.1956575 
  508000    1.0421487    2394.6897   0.17705843    1.5595362  -0.17585206    1.3836841 
  509000    1.0406019    2394.6897   0.17705843    1.5572215  -0.19863519    1.3585863 
  510000    1.0794811    2394.6897   0.17705843    1.6154028   -0.2103127    1.4050901 
  511000    1.0417562    2394.6897   0.17705843    1.5589489  -0.23023279    1.3287161 
  512000    0.9537552    2394.6897   0.17705843    1.4272587  -0.25150185    1.1757568 
  513000   0.96202154    2394.6897   0.17705843    1.4396289  -0.22386812    1.2157608 
  514000   0.99271289    2394.6897   0.17705843    1.4855574  -0.23822224    1.2473351 
  515000    1.0178398    2394.6897   0.17705843    1.5231589  -0.23194942    1.2912095 
  516000   0.98561087    2394.6897   0.17705843    1.4749295  -0.22222802    1.2527015 
  517000    1.0204757    2394.6897   0.17705843    1.5271034  -0.24077431    1.2863291 
  518000   0.95994739    2394.6897   0.17705843     1.436525  -0.21926435    1.2172607 
  519000    1.0040114    2394.6897   0.17705843    1.5024651  -0.19033649    1.3121286 
  520000   0.97328762    2394.6897   0.17705843    1.4564882  -0.23501755    1.2214706 
  521000   0.97745107    2394.6897   0.17705843    1.4627186  -0.18850213    1.2742165 
  522000    1.0290758    2394.6897   0.17705843    1.5399731  -0.24115512    1.2988179 
  523000    1.0185041    2394.6897   0.17705843     1.524153  -0.22422595     1.299927 
  524000   0.97048708    2394.6897   0.17705843    1.4522973  -0.21390299    1.2383943 
  525000   0.98022456    2394.6897   0.17705843    1.4668691   -0.2021739    1.2646952 
  526000   0.98916785    2394.6897   0.17705843    1.4802524  -0.22795995    1.2522924 
  527000    1.0896825    2394.6897   0.17705843    1.6306688   -0.2521045    1.3785643 
  528000   0.97908102    2394.6897   0.17705843    1.4651578  -0.24424528    1.2209125 
  529000    1.0019082    2394.6897   0.17705843    1.4993178  -0.20449796    1.2948198 
  530000   0.97280157    2394.6897   0.17705843    1.4557608  -0.25365396    1.2021069 
  531000   0.95489968    2394.6897   0.17705843    1.4289713  -0.23494712    1.1940242 
  532000    1.0080188    2394.6897   0.17705843    1.5084621   -0.2301059    1.2783562 
  533000    1.0166795    2394.6897   0.17705843    1.5214225  -0.22248753    1.2989349 
  534000   0.99853016    2394.6897   0.17705843    1.4942627  -0.21865645    1.2756063 
  535000   0.92604369    2394.6897   0.17705843    1.3857894   -0.2175976    1.1681918 
  536000   0.99541011    2394.6897   0.17705843    1.4895937   -0.2024473    1.2871464 
  537000     1.005483    2394.6897   0.17705843    1.5046674  -0.21157208    1.2930953 
  538000   0.99833318    2394.6897   0.17705843    1.4939679  -0.22451308    1.2694548 
  539000     1.003568    2394.6897   0.17705843    1.5018017   -0.2470337     1.254768 
  540000   0.94385788    2394.6897   0.17705843    1.4124477  -0.25137721    1.1610705 
  541000   0.98151688    2394.6897   0.17705843     1.468803  -0.22385689    1.2449461 
  542000   0.99548818    2394.6897   0.17705843    1.4897105  -0.22168806    1.2680224 
  543000    1.0438824    2394.6897   0.17705843    1.5621307  -0.24307633    1.3190543 
  544000    1.0087184    2394.6897   0.17705843    1.5095091  -0.21633701     1.293172 
  545000    1.0183287    2394.6897   0.17705843    1.5238904  -0.23115029    1.2927401 
  546000   0.98272864    2394.6897   0.17705843    1.4706163  -0.21416718    1.2564491 
  547000   0.97998102    2394.6897   0.17705843    1.4665046  -0.24373119    1.2227734 
  548000    1.0870762    2394.6897   0.17705843    1.6267685  -0.22131156     1.405457 
  549000   0.99477839    2394.6897   0.17705843    1.4886483  -0.23526278    1.2533855 
  550000    1.0147231    2394.6897   0.17705843    1.5184948  -0.26488922    1.2536056 
  551000   0.97707842    2394.6897   0.17705843     1.462161  -0.24548027    1.2166807 
  552000   0.93279628    2394.6897   0.17705843    1.3958944  -0.22050319    1.1753912 
  553000   0.97064351    2394.6897   0.17705843    1.4525314   -0.2544637    1.1980677 
  554000    1.0172814    2394.6897   0.17705843    1.5223232  -0.21595983    1.3063634 
  555000   0.93674528    2394.6897   0.17705843     1.401804   -0.2745138    1.1272902 
  556000   0.99302896    2394.6897   0.17705843    1.4860304  -0.20167634     1.284354 
  557000    1.0370914    2394.6897   0.17705843    1.5519682  -0.24162898    1.3103392 
  558000    1.0169859    2394.6897   0.17705843    1.5218811  -0.24438766    1.2774934 
  559000   0.98302433    2394.6897   0.17705843    1.4710588  -0.21600072    1.2550581 
  560000   0.99743585    2394.6897   0.17705843    1.4926251  -0.23227878    1.2603463 
  561000   0.97307973    2394.6897   0.17705843    1.4561771  -0.22915505     1.227022 
  562000   0.98612758    2394.6897   0.17705843    1.4757027  -0.20014647    1.2755562 
  563000    1.0566079    2394.6897   0.17705843    1.5811739  -0.19317263    1.3880012 
  564000    1.0687279    2394.6897   0.17705843    1.5993109  -0.23138381    1.3679271 
  565000    1.0019538    2394.6897   0.17705843    1.4993861  -0.20158163    1.2978045 
  566000    1.0204702    2394.6897   0.17705843    1.5270951  -0.24599855    1.2810965 
  567000   0.99894946    2394.6897   0.17705843    1.4948902  -0.22970148    1.2651887 
  568000   0.94619249    2394.6897   0.17705843    1.4159414  -0.22878381    1.1871576 
  569000   0.95738814    2394.6897   0.17705843    1.4326952  -0.25018308    1.1825121 
  570000   0.98584219    2394.6897   0.17705843    1.4752756  -0.21678101    1.2584946 
  571000    1.0301109    2394.6897   0.17705843    1.5415221  -0.24381059    1.2977115 
  572000    1.0067184    2394.6897   0.17705843    1.5065161  -0.26162398    1.2448921 
  573000   0.93657779    2394.6897   0.17705843    1.4015533  -0.21589138    1.1856619 
  574000    1.0149638    2394.6897   0.17705843    1.5188551  -0.24362488    1.2752302 
  575000   0.99558561    2394.6897   0.17705843    1.4898563  -0.24185185    1.2480044 
  576000    1.0203345    2394.6897   0.17705843    1.5268921  -0.19437758    1.3325145 
  577000    1.0361886    2394.6897   0.17705843    1.5506171  -0.22056768    1.3300494 
  578000   0.91662909    2394.6897   0.17705843    1.3717008  -0.21949978    1.1522011 
  579000    1.0289203    2394.6897   0.17705843    1.5397404  -0.22292386    1.3168165 
  580000    1.0033638    2394.6897   0.17705843    1.5014961  -0.22082383    1.2806722 
  581000    1.0010339    2394.6897   0.17705843    1.4980094   -0.2124283    1.2855811 
  582000    1.0170509    2394.6897   0.17705843    1.5219784  -0.20450485    1.3174735 
  583000    1.0683307    2394.6897   0.17705843    1.5987165  -0.22872052     1.369996 
  584000   0.99939118    2394.6897   0.17705843    1.4955512  -0.22929394    1.2662572 
  585000    1.0121135    2394.6897   0.17705843    1.5145897  -0.21430497    1.3002847 
  586000    0.9719254    2394.6897   0.17705843    1.4544497  -0.23485745    1.2195922 
  587000   0.97046443    2394.6897   0.17705843    1.4522634  -0.23190826    1.2203551 
  588000    1.0195257    2394.6897   0.17705843    1.5256817  -0.21991791    1.3057638 
  589000    1.0406674    2394.6897   0.17705843    1.5573194  -0.21756452    1.3397549 
  590000    1.0551207    2394.6897   0.17705843    1.5789484  -0.21439241     1.364556 
  591000    1.0079699    2394.6897   0.17705843    1.5083889  -0.27478781     1.233601 
  592000   0.94914083    2394.6897   0.17705843    1.4203534  -0.24293159    1.1774218 
  593000     1.032773    2394.6897   0.17705843    1.5455058   -0.2317043    1.3138015 
  594000    1.0540804    2394.6897   0.17705843    1.5773915  -0.23688767    1.3405039 
  595000    1.1414163    2394.6897   0.17705843    1.7080864  -0.19226228    1.5158241 
  596000    1.0019163    2394.6897   0.17705843    1.4993299  -0.21954391     1.279786 
  597000    1.0090604    2394.6897   0.17705843    1.5100209  -0.22811231    1.2819086 
  598000   0.98417408    2394.6897   0.17705843    1.4727794  -0.27619357    1.1965858 
  599000    1.0612315    2394.6897   0.17705843    1.5880928  -0.25389232    1.3342005 
  600000    1.0301483    2394.6897   0.17705843     1.541578  -0.20363774    1.3379403 
  601000     1.097058    2394.6897   0.17705843    1.6417059  -0.23029734    1.4114085 
  602000   0.89848079    2394.6897   0.17705843    1.3445426  -0.20317629    1.1413663 
  603000    1.0031875    2394.6897   0.17705843    1.5012322  -0.20805281    1.2931794 
  604000   0.99985859    2394.6897   0.17705843    1.4962506  -0.25313392    1.2431167 
  605000   0.92146389    2394.6897   0.17705843    1.3789359  -0.23050395     1.148432 
  606000    1.0197508    2394.6897   0.17705843    1.5260185  -0.21043143    1.3155871 
  607000    1.0053613    2394.6897   0.17705843    1.5044853  -0.22472616    1.2797591 
  608000    1.0406903    2394.6897   0.17705843    1.5573537  -0.21622419    1.3411295 
  609000    1.0029305    2394.6897   0.17705843    1.5008477  -0.20425324    1.2965944 
  610000    1.0138327    2394.6897   0.17705843    1.5171623  -0.21807657    1.2990858 
  611000     1.014722    2394.6897   0.17705843    1.5184932  -0.22974722     1.288746 
  612000     1.060177    2394.6897   0.17705843    1.5865149  -0.18307888    1.4034361 
  613000    1.0019019    2394.6897   0.17705843    1.4993083  -0.23813886    1.2611695 
  614000   0.97862084    2394.6897   0.17705843    1.4644692  -0.22994116     1.234528 
  615000   0.96391466    2394.6897   0.17705843    1.4424619  -0.23315477    1.2093071 
  616000   0.96500964    2394.6897   0.17705843    1.4441005  -0.24405603    1.2000445 
  617000    1.0285065    2394.6897   0.17705843    1.5391212  -0.22839171    1.3107295 
  618000    1.0066122    2394.6897   0.17705843    1.5063572  -0.22179979    1.2845574 
  619000   0.94967915    2394.6897   0.17705843     1.421159  -0.24901834    1.1721407 
  620000     1.016855    2394.6897   0.17705843    1.5216851  -0.25719875    1.2644863 
  621000   0.96217917    2394.6897   0.17705843    1.4398648  -0.22779414    1.2120707 
  622000    1.0524993    2394.6897   0.17705843    1.5750255  -0.22111065    1.3539149 
  623000    1.0390598    2394.6897   0.17705843    1.5549138  -0.21032808    1.3445857 
  624000   0.98238604    2394.6897   0.17705843    1.4701036  -0.21283424    1.2572694 
  625000   0.99224507    2394.6897   0.17705843    1.4848573  -0.22038298    1.2644743 
  626000    1.0301484    2394.6897   0.17705843    1.5415781  -0.22759428    1.3139839 
  627000   0.92116814    2394.6897   0.17705843    1.3784934  -0.23194361    1.1465498 
  628000    1.0037102    2394.6897   0.17705843    1.5020145  -0.18023245     1.321782 
  629000    1.0235993    2394.6897   0.17705843    1.5317777  -0.24946281    1.2823149 
  630000    1.0106188    2394.6897   0.17705843    1.5123529  -0.22189105    1.2904619 
  631000    1.0106287    2394.6897   0.17705843    1.5123677  -0.23310436    1.2792633 
  632000    1.0087042    2394.6897   0.17705843    1.5094878  -0.24151351    1.2679743 
  633000   0.97285209    2394.6897   0.17705843    1.4558364   -0.2215315    1.2343049 
  634000   0.95396123    2394.6897   0.17705843     1.427567  -0.22915628    1.1984107 
  635000   0.98529411    2394.6897   0.17705843    1.4744554  -0.23087207    1.2435834 
  636000    1.0658089    2394.6897   0.17705843    1.5949428  -0.20678233    1.3881605 
  637000    1.0330123    2394.6897   0.17705843    1.5458639  -0.20306684    1.3427971 
  638000    1.0315903    2394.6897   0.17705843    1.5437359  -0.20825041    1.3354855 
  639000   0.99496508    2394.6897   0.17705843    1.4889277  -0.22937867     1.259549 
  640000    1.0460524    2394.6897   0.17705843     1.565378  -0.22559369    1.3397843 
  641000   0.98947596    2394.6897   0.17705843    1.4807134  -0.23669284    1.2440206 
  642000     1.010167    2394.6897   0.17705843    1.5116767  -0.21989161    1.2917851 
  643000    1.0071187    2394.6897   0.17705843    1.5071151  -0.22863873    1.2784764 
  644000    1.0374166    2394.6897   0.17705843    1.5524548  -0.19725727    1.3551975 
  645000    1.0477805    2394.6897   0.17705843     1.567964  -0.25028731    1.3176767 
  646000   0.93159569    2394.6897   0.17705843    1.3940978  -0.25091571    1.1431821 
  647000   0.96433165    2394.6897   0.17705843    1.4430859  -0.22360905    1.2194769 
  648000   0.95610795    2394.6897   0.17705843    1.4307795  -0.23222571    1.1985538 
  649000   0.98413827    2394.6897   0.17705843    1.4727258  -0.22723126    1.2454945 
  650000    0.9871952    2394.6897   0.17705843    1.4773004   -0.2574683    1.2198321 
  651000   0.94324495    2394.6897   0.17705843    1.4115305  -0.21747928    1.1940512 
  652000    1.0336011    2394.6897   0.17705843    1.5467451  -0.22525825    1.3214868 
  653000    1.0232895    2394.6897   0.17705843    1.5313141  -0.24479341    1.2865207 
  654000    1.0264115    2394.6897   0.17705843    1.5359861   -0.2423842    1.2936019 
  655000   0.96287903    2394.6897   0.17705843    1.4409121  -0.22673518     1.214177 
  656000   0.95224529    2394.6897   0.17705843    1.4249991  -0.25429129    1.1707079 
  657000    1.0096553    2394.6897   0.17705843    1.5109111  -0.24728189    1.2636292 
  658000   0.99874234    2394.6897   0.17705843    1.4945802  -0.20166301    1.2929172 
  659000    1.0622149    2394.6897   0.17705843    1.5895646  -0.24688018    1.3426844 
  660000   0.96061206    2394.6897   0.17705843    1.4375197  -0.17087299    1.2666467 
  661000    1.0283756    2394.6897   0.17705843    1.5389253   -0.2117004    1.3272249 
  662000    1.0511785    2394.6897   0.17705843     1.573049  -0.25964843    1.3134006 
  663000    1.0216978    2394.6897   0.17705843    1.5289322  -0.22308764    1.3058446 
  664000    1.0263725    2394.6897   0.17705843    1.5359278  -0.21361964    1.3223081 
  665000   0.95105874    2394.6897   0.17705843    1.4232235  -0.24788626    1.1753373 
  666000   0.98367967    2394.6897   0.17705843    1.4720395  -0.18205874    1.2899808 
  667000    1.1119444    2394.6897   0.17705843    1.6639829  -0.21052072    1.4534622 
  668000    1.0449449    2394.6897   0.17705843    1.5637206  -0.22730416    1.3364165 
  669000     1.020155    2394.6897   0.17705843    1.5266234  -0.23263717    1.2939862 
  670000    1.0261621    2394.6897   0.17705843    1.5356128  -0.22393676    1.3116761 
  671000    1.0341392    2394.6897   0.17705843    1.5475503  -0.21660548    1.3309449 
  672000    1.0305047    2394.6897   0.17705843    1.5421113  -0.25869238     1.283419 
  673000   0.97532789    2394.6897   0.17705843    1.4595414   -0.2582396    1.2013018 
  674000   0.95195068    2394.6897   0.17705843    1.4245583  -0.23905202    1.1855062 
  675000    1.0651875    2394.6897   0.17705843    1.5940129  -0.21037776    1.3836351 
  676000     1.014182    2394.6897   0.17705843     1.517685  -0.18732273    1.3303623 
  677000    1.0230383    2394.6897   0.17705843    1.5309381  -0.21923136    1.3117068 
  678000   0.92616551    2394.6897   0.17705843    1.3859717  -0.23289829    1.1530734 
  679000    1.0248821    2394.6897   0.17705843    1.5336974  -0.22890254    1.3047948 
  680000    1.0331049    2394.6897   0.17705843    1.5460024  -0.22562714    1.3203753 
  681000   0.97595532    2394.6897   0.17705843    1.4604803  -0.17829651    1.2821838 
  682000   0.97327384    2394.6897   0.17705843    1.4564676  -0.20395173    1.2525158 
  683000   0.98042291    2394.6897   0.17705843    1.4671659  -0.22697036    1.2401955 
  684000   0.95827446    2394.6897   0.17705843    1.4340216    -0.199428    1.2345936 
  685000   0.95192719    2394.6897   0.17705843    1.4245231  -0.24281181    1.1817113 
  686000   0.96876037    2394.6897   0.17705843    1.4497133  -0.23666313    1.2130502 
  687000    1.0533409    2394.6897   0.17705843    1.5762849    -0.200794    1.3754909 
  688000   0.95185644    2394.6897   0.17705843    1.4244172  -0.22902652    1.1953907 
  689000    1.0084798    2394.6897   0.17705843     1.509152  -0.22620976    1.2829422 
  690000   0.99530186    2394.6897   0.17705843    1.4894317  -0.22999911    1.2594326 
  691000      1.05008    2394.6897   0.17705843    1.5714051  -0.25740654    1.3139985 
  692000    1.0208505    2394.6897   0.17705843    1.5276642  -0.21183558    1.3158286 
  693000    1.0261428    2394.6897   0.17705843     1.535584  -0.19911429    1.3364698 
  694000    0.9851321    2394.6897   0.17705843     1.474213   -0.2015302    1.2726828 
  695000   0.97514823    2394.6897   0.17705843    1.4592725  -0.23531032    1.2239622 
  696000    1.0054963    2394.6897   0.17705843    1.5046872  -0.20601899    1.2986682 
  697000    1.0453551    2394.6897   0.17705843    1.5643345  -0.22314631    1.3411882 
  698000    1.0834531    2394.6897   0.17705843    1.6213466  -0.20465127    1.4166954 
  699000   0.94262964    2394.6897   0.17705843    1.4106097  -0.15731052    1.2532992 
  700000   0.96375121    2394.6897   0.17705843    1.4422173  -0.22930633     1.212911 
  701000     1.014265    2394.6897   0.17705843    1.5178093  -0.24859087    1.2692184 
  702000     1.025406    2394.6897   0.17705843    1.5344814  -0.19065598    1.3438254 
  703000    1.0182809    2394.6897   0.17705843     1.523819  -0.20386189    1.3199571 
  704000    1.0183046    2394.6897   0.17705843    1.5238544  -0.22723534     1.296619 
  705000   0.93479136    2394.6897   0.17705843      1.39888  -0.22385682    1.1750232 
  706000   0.98669552    2394.6897   0.17705843    1.4765526  -0.23972171    1.2368309 
  707000   0.95755517    2394.6897   0.17705843    1.4329452  -0.22279921     1.210146 
  708000    1.0205864    2394.6897   0.17705843    1.5272691  -0.23728982    1.2899793 
  709000    1.0023988    2394.6897   0.17705843     1.500052   -0.2496795    1.2503725 
  710000    1.0801227    2394.6897   0.17705843    1.6163629  -0.24298679    1.3733761 
  711000   0.96314849    2394.6897   0.17705843    1.4413154  -0.21672634     1.224589 
  712000   0.99018111    2394.6897   0.17705843    1.4817687  -0.24815062     1.233618 
  713000    1.0630448    2394.6897   0.17705843    1.5908065  -0.20407955     1.386727 
  714000    1.0079643    2394.6897   0.17705843    1.5083805    -0.198085    1.3102955 
  715000   0.95681094    2394.6897   0.17705843    1.4318315  -0.23400975    1.1978217 
  716000   0.96784211    2394.6897   0.17705843    1.4483392  -0.26647966    1.1818595 
  717000    1.0115233    2394.6897   0.17705843    1.5137064   -0.1946462    1.3190602 
  718000   0.98247175    2394.6897   0.17705843    1.4702319  -0.22228704    1.2479449 
  719000   0.89926064    2394.6897   0.17705843    1.3457096  -0.18635223    1.1593574 
  720000    1.0202859    2394.6897   0.17705843    1.5268194  -0.23602095    1.2907984 
  721000   0.99565967    2394.6897   0.17705843    1.4899671  -0.22365977    1.2663074 
  722000    1.0408472    2394.6897   0.17705843    1.5575886  -0.26167127    1.2959173 
  723000    1.0063146    2394.6897   0.17705843    1.5059118  -0.21992604    1.2859857 
  724000    1.0194176    2394.6897   0.17705843    1.5255199  -0.24674204    1.2787779 
  725000   0.96794883    2394.6897   0.17705843    1.4484989  -0.26152951    1.1869694 
  726000   0.94563614    2394.6897   0.17705843    1.4151088   -0.2172779    1.1978309 
  727000   0.98629874    2394.6897   0.17705843    1.4759589  -0.24776608    1.2281928 
  728000    1.0545321    2394.6897   0.17705843    1.5780675  -0.20291024    1.3751573 
  729000    1.0368065    2394.6897   0.17705843    1.5515418  -0.23755322    1.3139886 
  730000   0.91252702    2394.6897   0.17705843    1.3655622  -0.21602509    1.1495372 
  731000   0.95002659    2394.6897   0.17705843    1.4216789  -0.23566581    1.1860131 
  732000    1.0102825    2394.6897   0.17705843    1.5118497  -0.21790507    1.2939446 
  733000    1.0424508    2394.6897   0.17705843    1.5599882  -0.22534526     1.334643 
  734000    1.0223094    2394.6897   0.17705843    1.5298474  -0.21623477    1.3136126 
  735000   0.99333206    2394.6897   0.17705843    1.4864839  -0.19301728    1.2934667 
  736000   0.99328593    2394.6897   0.17705843    1.4864149  -0.24587927    1.2405356 
  737000   0.99892165    2394.6897   0.17705843    1.4948486  -0.20686464    1.2879839 
  738000    1.0030932    2394.6897   0.17705843     1.501091  -0.20965777    1.2914333 
  739000    1.0016353    2394.6897   0.17705843    1.4989095  -0.26559977    1.2333097 
  740000   0.96639313    2394.6897   0.17705843    1.4461708  -0.24763587     1.198535 
  741000   0.93743309    2394.6897   0.17705843    1.4028332  -0.22196618    1.1808671 
  742000    1.0048409    2394.6897   0.17705843    1.5037066  -0.22158624    1.2821203 
  743000    1.0196767    2394.6897   0.17705843    1.5259077  -0.21369993    1.3122078 
  744000    1.0006879    2394.6897   0.17705843    1.4974917  -0.22486922    1.2726225 
  745000   0.94189111    2394.6897   0.17705843    1.4095045  -0.23110109    1.1784034 
  746000    1.0827006    2394.6897   0.17705843    1.6202205  -0.23974676    1.3804738 
  747000    1.0231825    2394.6897   0.17705843    1.5311539  -0.24946079    1.2816931 
  748000    1.0021952    2394.6897   0.17705843    1.4997473  -0.22875938    1.2709879 
  749000   0.96148592    2394.6897   0.17705843    1.4388274    -0.208515    1.2303124 
  750000     1.045649    2394.6897   0.17705843    1.5647743  -0.24311288    1.3216614 
  751000    1.0363652    2394.6897   0.17705843    1.5508814  -0.24281253    1.3080689 
  752000    1.0030812    2394.6897   0.17705843    1.5010731   -0.2448981     1.256175 
  753000   0.98019596    2394.6897   0.17705843    1.4668263  -0.20400079    1.2628255 
  754000   0.97475465    2394.6897   0.17705843    1.4586835  -0.22660575    1.2320778 
  755000   0.96691447    2394.6897   0.17705843     1.446951  -0.25217201     1.194779 
  756000   0.93400063    2394.6897   0.17705843    1.3976967  -0.25348769     1.144209 
  757000    1.0316932    2394.6897   0.17705843    1.5438899  -0.23405082    1.3098391 
  758000    1.0354293    2394.6897   0.17705843    1.5494808   -0.2147116    1.3347692 
  759000   0.96698356    2394.6897   0.17705843    1.4470544  -0.24631434    1.2007401 
  760000   0.98264084    2394.6897   0.17705843    1.4704849   -0.2193437    1.2511412 
  761000   0.99429858    2394.6897   0.17705843    1.4879303  -0.18962026      1.29831 
  762000   0.99400445    2394.6897   0.17705843    1.4874902  -0.23098757    1.2565026 
  763000    1.0294344    2394.6897   0.17705843    1.5405098  -0.21788308    1.3226267 
  764000   0.98196103    2394.6897   0.17705843    1.4694676  -0.25133581    1.2181318 
  765000   0.93750577    2394.6897   0.17705843     1.402942  -0.21236609    1.1905759 
  766000     1.026593    2394.6897   0.17705843    1.5362577  -0.21996567    1.3162921 
  767000   0.96462019    2394.6897   0.17705843    1.4435177   -0.2348608    1.2086569 
  768000    1.0231715    2394.6897   0.17705843    1.5311376  -0.24043227    1.2907053 
  769000    1.0296926    2394.6897   0.17705843    1.5408961  -0.22385351    1.3170425 
  770000    1.0571513    2394.6897   0.17705843    1.5819871  -0.19197084    1.3900162 
  771000    1.0344118    2394.6897   0.17705843    1.5479583  -0.25540376    1.2925545 
  772000    1.0495833    2394.6897   0.17705843    1.5706619  -0.24775258    1.3229093 
  773000   0.95721441    2394.6897   0.17705843    1.4324352  -0.23120112    1.2012341 
  774000   0.92417143    2394.6897   0.17705843    1.3829877  -0.19540358    1.1875841 
  775000    1.0230007    2394.6897   0.17705843    1.5308819  -0.20653487    1.3243471 
  776000    1.0078395    2394.6897   0.17705843    1.5081938  -0.21531913    1.2928747 
  777000    1.0017728    2394.6897   0.17705843    1.4991151  -0.23978346    1.2593317 
  778000   0.98884574    2394.6897   0.17705843    1.4797703  -0.22516261    1.2546077 
  779000   0.91243533    2394.6897   0.17705843     1.365425  -0.22389586    1.1415292 
  780000    1.0270209    2394.6897   0.17705843     1.536898   -0.2104212    1.3264768 
  781000    1.0193215    2394.6897   0.17705843    1.5253761  -0.24737653    1.2779996 
  782000    1.0143451    2394.6897   0.17705843    1.5179291  -0.20350151    1.3144276 
  783000     1.026761    2394.6897   0.17705843    1.5365091  -0.23802626    1.2984828 
  784000   0.95735121    2394.6897   0.17705843      1.43264   -0.2277912    1.2048488 
  785000   0.97448896    2394.6897   0.17705843     1.458286  -0.20527928    1.2530067 
  786000    1.0194158    2394.6897   0.17705843    1.5255172  -0.21454166    1.3109755 
  787000    1.0130972    2394.6897   0.17705843    1.5160617  -0.20718349    1.3088782 
  788000   0.99852383    2394.6897   0.17705843    1.4942532  -0.25238121     1.241872 
  789000   0.97525568    2394.6897   0.17705843    1.4594333  -0.23348768    1.2259457 
  790000   0.95757615    2394.6897   0.17705843    1.4329766   -0.2546845    1.1782921 
  791000   0.99416131    2394.6897   0.17705843    1.4877249   -0.2226208    1.2651041 
  792000    1.0291967    2394.6897   0.17705843     1.540154  -0.17757202     1.362582 
  793000    0.9963973    2394.6897   0.17705843     1.491071  -0.24775529    1.2433157 
  794000   0.92627028    2394.6897   0.17705843    1.3861285  -0.24581663    1.1403119 
  795000   0.98679866    2394.6897   0.17705843     1.476707  -0.17118733    1.3055196 
  796000    1.0036169    2394.6897   0.17705843    1.5018748  -0.24510261    1.2567722 
  797000    1.0157366    2394.6897   0.17705843    1.5200115  -0.25139537    1.2686162 
  798000      1.00627    2394.6897   0.17705843    1.5058451  -0.24088096    1.2649641 
  799000   0.91317803    2394.6897   0.17705843    1.3665365  -0.26866055    1.0978759 
  800000   0.97354187    2394.6897   0.17705843    1.4568687  -0.24720058    1.2096681 
  801000    1.1217768    2394.6897   0.17705843    1.6786967  -0.24474767     1.433949 
  802000   0.97521032    2394.6897   0.17705843    1.4593654  -0.20014008    1.2592254 
  803000    0.9775245    2394.6897   0.17705843    1.4628285  -0.22492707    1.2379015 
  804000   0.93240531    2394.6897   0.17705843    1.3953094  -0.23558426    1.1597251 
  805000   0.97289465    2394.6897   0.17705843    1.4559001   -0.2671862    1.1887139 
  806000   0.97340312    2394.6897   0.17705843     1.456661   -0.2160848    1.2405762 
  807000   0.94653393    2394.6897   0.17705843    1.4164523  -0.22008311    1.1963692 
  808000   0.95015505    2394.6897   0.17705843    1.4218712  -0.21034617     1.211525 
  809000    0.9932637    2394.6897   0.17705843    1.4863816  -0.23276255    1.2536191 
  810000    1.0094886    2394.6897   0.17705843    1.5106615  -0.24679722    1.2638643 
  811000    1.0258902    2394.6897   0.17705843    1.5352059  -0.22385668    1.3113492 
  812000   0.99586869    2394.6897   0.17705843    1.4902799  -0.21324331    1.2770366 
  813000   0.91492122    2394.6897   0.17705843    1.3691451  -0.22910181    1.1400433 
  814000   0.99020428    2394.6897   0.17705843    1.4818033  -0.22575638     1.256047 
  815000   0.96973287    2394.6897   0.17705843    1.4511686  -0.24645882    1.2047098 
  816000    1.0271157    2394.6897   0.17705843    1.5370399  -0.23128608    1.3057539 
  817000    1.0316915    2394.6897   0.17705843    1.5438874  -0.24844356    1.2954438 
  818000    1.0128764    2394.6897   0.17705843    1.5157314  -0.22947442    1.2862569 
  819000   0.93402968    2394.6897   0.17705843    1.3977402  -0.21913886    1.1786013 
  820000    1.0140015    2394.6897   0.17705843    1.5174149  -0.26182646    1.2555885 
  821000   0.99697406    2394.6897   0.17705843    1.4919341  -0.23424325    1.2576908 
  822000   0.96896895    2394.6897   0.17705843    1.4500255  -0.23174836    1.2182771 
  823000    0.9545555    2394.6897   0.17705843    1.4284563  -0.24212124     1.186335 
  824000    1.0645666    2394.6897   0.17705843    1.5930837  -0.24397109    1.3491126 
  825000   0.98333941    2394.6897   0.17705843    1.4715303  -0.19975405    1.2717763 
  826000   0.98586446    2394.6897   0.17705843     1.475309  -0.25117875    1.2241302 
  827000    1.0910261    2394.6897   0.17705843    1.6326793  -0.26491136     1.367768 
  828000   0.97912923    2394.6897   0.17705843    1.4652299  -0.19081598     1.274414 
  829000    1.0700402    2394.6897   0.17705843    1.6012747  -0.23380572     1.367469 
  830000   0.98813586    2394.6897   0.17705843     1.478708  -0.25008187    1.2286262 
  831000   0.97145574    2394.6897   0.17705843    1.4537469  -0.23755303    1.2161938 
  832000    1.0041639    2394.6897   0.17705843    1.5026934  -0.16681604    1.3358774 
  833000     1.005424    2394.6897   0.17705843    1.5045791  -0.21142726    1.2931519 
  834000   0.99445691    2394.6897   0.17705843    1.4881672  -0.23661562    1.2515516 
  835000   0.99366711    2394.6897   0.17705843    1.4869853  -0.21887788    1.2681075 
  836000    1.0984682    2394.6897   0.17705843    1.6438162   -0.2051617    1.4386545 
  837000     1.054226    2394.6897   0.17705843    1.5776094  -0.19399838     1.383611 
  838000   0.92067736    2394.6897   0.17705843    1.3777589  -0.23919723    1.1385617 
  839000   0.98011685    2394.6897   0.17705843    1.4667079  -0.20268594    1.2640219 
  840000    1.0346823    2394.6897   0.17705843    1.5483631  -0.25653734    1.2918257 
  841000   0.99643131    2394.6897   0.17705843    1.4911219  -0.22381117    1.2673107 
  842000   0.96238802    2394.6897   0.17705843    1.4401774  -0.18797431     1.252203 
  843000   0.96474046    2394.6897   0.17705843    1.4436977  -0.20726024    1.2364375 
  844000   0.95659274    2394.6897   0.17705843    1.4315049  -0.22722258    1.2042824 
  845000   0.96962059    2394.6897   0.17705843    1.4510006  -0.23716391    1.2138367 
  846000   0.98330268    2394.6897   0.17705843    1.4714754  -0.25089482    1.2205805 
  847000    1.0409762    2394.6897   0.17705843    1.5577816  -0.20003102    1.3577505 
  848000   0.96188297    2394.6897   0.17705843    1.4394216  -0.23433458     1.205087 
  849000   0.99074882    2394.6897   0.17705843    1.4826182  -0.22948988    1.2531283 
  850000   0.98857115    2394.6897   0.17705843    1.4793594  -0.21018409    1.2691753 
  851000    1.0320744    2394.6897   0.17705843    1.5444604  -0.22929977    1.3151606 
  852000    1.0159632    2394.6897   0.17705843    1.5203506  -0.21464215    1.3057084 
  853000    1.0180178    2394.6897   0.17705843    1.5234253  -0.18752479    1.3359005 
  854000   0.96586089    2394.6897   0.17705843    1.4453744   -0.2045433    1.2408311 
  855000    1.0769645    2394.6897   0.17705843    1.6116368  -0.20731452    1.4043222 
  856000    1.0247648    2394.6897   0.17705843    1.5335218  -0.24159708    1.2919247 
  857000    1.0124776    2394.6897   0.17705843    1.5151346  -0.22221201    1.2929225 
  858000    0.9656708    2394.6897   0.17705843    1.4450899  -0.22624036    1.2188495 
  859000     0.981221    2394.6897   0.17705843    1.4683602  -0.23753234    1.2308279 
  860000    1.0219681    2394.6897   0.17705843    1.5293367  -0.20355364    1.3257831 
  861000   0.93155958    2394.6897   0.17705843    1.3940438  -0.25195413    1.1420896 
  862000   0.94932041    2394.6897   0.17705843    1.4206222  -0.23685905    1.1837631 
  863000   0.99814861    2394.6897   0.17705843    1.4936917  -0.17288561    1.3208061 
  864000    1.0405542    2394.6897   0.17705843    1.5571501  -0.21488353    1.3422666 
  865000    1.0113801    2394.6897   0.17705843    1.5134922  -0.23164252    1.2818497 
  866000   0.96468397    2394.6897   0.17705843    1.4436132  -0.24633173    1.1972814 
  867000   0.95999285    2394.6897   0.17705843    1.4365931  -0.20362037    1.2329727 
  868000    1.0032865    2394.6897   0.17705843    1.5013804  -0.22599847     1.275382 
  869000     1.004521    2394.6897   0.17705843    1.5032278  -0.25478895    1.2484389 
  870000    1.0545982    2394.6897   0.17705843    1.5781664  -0.24651263    1.3316538 
  871000    1.0722112    2394.6897   0.17705843    1.6045236  -0.23721966     1.367304 
  872000    1.0580248    2394.6897   0.17705843    1.5832942  -0.25720422      1.32609 
  873000   0.94828612    2394.6897   0.17705843    1.4190744  -0.24334782    1.1757266 
  874000     1.023492    2394.6897   0.17705843    1.5316171  -0.24317414     1.288443 
  875000   0.99133825    2394.6897   0.17705843    1.4835003  -0.25321301    1.2302873 
  876000   0.94846208    2394.6897   0.17705843    1.4193377  -0.20807334    1.2112644 
  877000    1.0215766    2394.6897   0.17705843    1.5287508  -0.24873305    1.2800178 
  878000    1.0652419    2394.6897   0.17705843    1.5940943  -0.21942316    1.3746712 
  879000     1.003948    2394.6897   0.17705843    1.5023703  -0.23591332    1.2664569 
  880000   0.93570232    2394.6897   0.17705843    1.4002432  -0.22576642    1.1744768 
  881000   0.98519575    2394.6897   0.17705843    1.4743083   -0.1930929    1.2812154 
  882000   0.99755995    2394.6897   0.17705843    1.4928108  -0.22123552    1.2715753 
  883000    1.0211263    2394.6897   0.17705843     1.528077  -0.24834186    1.2797351 
  884000   0.99495282    2394.6897   0.17705843    1.4889093  -0.24454095    1.2443684 
  885000    1.0247579    2394.6897   0.17705843    1.5335115  -0.24386036    1.2896512 
  886000   0.97216009    2394.6897   0.17705843    1.4548009   -0.1937993    1.2610016 
  887000    1.0697199    2394.6897   0.17705843    1.6007955  -0.24265347     1.358142 
  888000   0.93150058    2394.6897   0.17705843    1.3939555  -0.25980908    1.1341464 
  889000   0.97089838    2394.6897   0.17705843    1.4529128  -0.24489142    1.2080214 
  890000   0.93620415    2394.6897   0.17705843    1.4009942   -0.2421504    1.1588438 
  891000    1.0192068    2394.6897   0.17705843    1.5252045  -0.24441495    1.2807895 
  892000    1.0169553    2394.6897   0.17705843    1.5218352  -0.24868406    1.2731511 
  893000   0.97139735    2394.6897   0.17705843    1.4536595  -0.22532586    1.2283336 
  894000   0.97078009    2394.6897   0.17705843    1.4527358  -0.21139304    1.2413427 
  895000    1.0171882    2394.6897   0.17705843    1.5221837  -0.24755943    1.2746243 
  896000   0.93714278    2394.6897   0.17705843    1.4023988  -0.20357976     1.198819 
  897000    1.0120912    2394.6897   0.17705843    1.5145564  -0.22589111    1.2886652 
  898000    0.9920119    2394.6897   0.17705843    1.4845084  -0.23503263    1.2494757 
  899000    1.0290601    2394.6897   0.17705843    1.5399497  -0.23734219    1.3026075 
  900000     1.082609    2394.6897   0.17705843    1.6200835  -0.26311959    1.3569639 
  901000     1.014475    2394.6897   0.17705843    1.5181235   -0.2855888    1.2325347 
  902000   0.98271814    2394.6897   0.17705843    1.4706006  -0.23203256    1.2385681 
  903000   0.92865275    2394.6897   0.17705843    1.3896938  -0.23058488    1.1591089 
  904000    1.0417443    2394.6897   0.17705843    1.5589311  -0.23021221    1.3287189 
  905000   0.95751611    2394.6897   0.17705843    1.4328867   -0.2114787     1.221408 
  906000   0.96066726    2394.6897   0.17705843    1.4376023  -0.24145324    1.1961491 
  907000    1.0237122    2394.6897   0.17705843    1.5319467  -0.24340012    1.2885466 
  908000    1.0463507    2394.6897   0.17705843    1.5658244  -0.23609311    1.3297313 
  909000   0.99647148    2394.6897   0.17705843     1.491182  -0.18231135    1.3088706 
  910000    1.0040387    2394.6897   0.17705843     1.502506  -0.22231392    1.2801921 
  911000   0.97338497    2394.6897   0.17705843    1.4566339  -0.20602054    1.2506133 
  912000    1.0380353    2394.6897   0.17705843    1.5533806  -0.24846917    1.3049114 
  913000    1.0495983    2394.6897   0.17705843    1.5706842  -0.21624556    1.3544387 
  914000   0.97211569    2394.6897   0.17705843    1.4547344  -0.18882524    1.2659092 
  915000   0.98792006    2394.6897   0.17705843    1.4783851  -0.21078692    1.2675982 
  916000    0.9930792    2394.6897   0.17705843    1.4861055  -0.25052905    1.2355765 
  917000   0.99612229    2394.6897   0.17705843    1.4906594  -0.25408958    1.2365698 
  918000   0.99962904    2394.6897   0.17705843    1.4959071  -0.25621734    1.2396898 
  919000    1.0590456    2394.6897   0.17705843    1.5848218  -0.20323326    1.3815886 
  920000   0.95610457    2394.6897   0.17705843    1.4307744  -0.21941784    1.2113566 
  921000   0.96931387    2394.6897   0.17705843    1.4505416  -0.27028895    1.1802527 
  922000   0.97487656    2394.6897   0.17705843     1.458866   -0.2432897    1.2155763 
  923000    0.9819374    2394.6897   0.17705843    1.4694323  -0.23718645    1.2322458 
  924000    1.0143061    2394.6897   0.17705843    1.5178707   -0.2003561    1.3175146 
  925000      1.00453    2394.6897   0.17705843    1.5032412  -0.26503326    1.2382079 
  926000   0.95657096    2394.6897   0.17705843    1.4314724  -0.22310974    1.2083626 
  927000   0.95547795    2394.6897   0.17705843    1.4298367  -0.21275618    1.2170805 
  928000   0.95800002    2394.6897   0.17705843    1.4336109  -0.20964575    1.2239651 
  929000    1.0286272    2394.6897   0.17705843    1.5393017  -0.22001207    1.3192897 
  930000    0.9791462    2394.6897   0.17705843    1.4652553  -0.20764849    1.2576069 
  931000   0.98823403    2394.6897   0.17705843    1.4788549  -0.25336732    1.2254876 
  932000    1.0756534    2394.6897   0.17705843    1.6096748  -0.23313235    1.3765424 
  933000    1.0292051    2394.6897   0.17705843    1.5401666  -0.22675002    1.3134165 
  934000     1.032537    2394.6897   0.17705843    1.5451526   -0.2111429    1.3340098 
  935000    0.9282746    2394.6897   0.17705843    1.3891279  -0.24557922    1.1435487 
  936000   0.96296473    2394.6897   0.17705843    1.4410404   -0.2235354     1.217505 
  937000    1.0440928    2394.6897   0.17705843    1.5624455  -0.20337422    1.3590713 
  938000    1.0468652    2394.6897   0.17705843    1.5665943  -0.24776967    1.3188247 
  939000    1.0101167    2394.6897   0.17705843    1.5116015  -0.23481851     1.276783 
  940000   0.98438282    2394.6897   0.17705843    1.4730917  -0.21760085    1.2554909 
  941000   0.95269786    2394.6897   0.17705843    1.4256764  -0.21906884    1.2066076 
  942000    1.0110254    2394.6897   0.17705843    1.5129614  -0.21218865    1.3007728 
  943000   0.99590155    2394.6897   0.17705843    1.4903291  -0.21860855    1.2717205 
  944000   0.95784605    2394.6897   0.17705843    1.4333805  -0.23187997    1.2015005 
  945000   0.98301407    2394.6897   0.17705843    1.4710435  -0.24862157    1.2224219 
  946000   0.96144437    2394.6897   0.17705843    1.4387652  -0.22440009    1.2143651 
  947000   0.96793904    2394.6897   0.17705843    1.4484842  -0.18202883    1.2664554 
  948000   0.96262281    2394.6897   0.17705843    1.4405287   -0.1972724    1.2432563 
  949000   0.93293826    2394.6897   0.17705843    1.3961069  -0.19601462    1.2000923 
  950000    0.9665151    2394.6897   0.17705843    1.4463534     -0.24811    1.1982434 
  951000    1.0542083    2394.6897   0.17705843     1.577583  -0.20333313    1.3742498 
  952000   0.99194399    2394.6897   0.17705843    1.4844068  -0.25372147    1.2306853 
  953000   0.93982591    2394.6897   0.17705843     1.406414  -0.25470801     1.151706 
  954000    1.0446138    2394.6897   0.17705843    1.5632251  -0.26499558    1.2982295 
  955000    1.0640513    2394.6897   0.17705843    1.5923127  -0.22231547    1.3699972 
  956000    1.0083067    2394.6897   0.17705843     1.508893  -0.21291024    1.2959828 
  957000    1.0459649    2394.6897   0.17705843    1.5652471  -0.21654049    1.3487066 
  958000   0.96117273    2394.6897   0.17705843    1.4383587  -0.21169992    1.2266588 
  959000   0.96541868    2394.6897   0.17705843    1.4447126  -0.19344865     1.251264 
  960000    1.0901228    2394.6897   0.17705843    1.6313276  -0.23984177    1.3914859 
  961000    1.0269748    2394.6897   0.17705843    1.5368291  -0.20409209     1.332737 
  962000   0.94035609    2394.6897   0.17705843    1.4072074  -0.22093235    1.1862751 
  963000    1.0768931    2394.6897   0.17705843    1.6115298  -0.24934054    1.3621893 
  964000   0.96203978    2394.6897   0.17705843    1.4396562  -0.28314268    1.1565135 
  965000   0.97683864    2394.6897   0.17705843    1.4618022  -0.20990136    1.2519008 
  966000    1.0492367    2394.6897   0.17705843    1.5701432  -0.22296598    1.3471772 
  967000    1.0241853    2394.6897   0.17705843    1.5326547  -0.22907569     1.303579 
  968000   0.93407993    2394.6897   0.17705843    1.3978154  -0.21853988    1.1792755 
  969000    1.0426281    2394.6897   0.17705843    1.5602536  -0.23487228    1.3253814 
  970000     1.015529    2394.6897   0.17705843    1.5197009   -0.2446002    1.2751007 
  971000   0.94138832    2394.6897   0.17705843    1.4087521  -0.21767557    1.1910765 
  972000   0.98698045    2394.6897   0.17705843     1.476979  -0.24270644    1.2342726 
  973000   0.99121708    2394.6897   0.17705843     1.483319  -0.23108888    1.2522301 
  974000    1.0162324    2394.6897   0.17705843    1.5207534  -0.19639787    1.3243555 
  975000    1.0039086    2394.6897   0.17705843    1.5023114  -0.22114241     1.281169 
  976000   0.97139831    2394.6897   0.17705843    1.4536609  -0.19292832    1.2607326 
  977000    1.0379421    2394.6897   0.17705843    1.5532411   -0.2032902    1.3499509 
  978000    1.0126659    2394.6897   0.17705843    1.5154162  -0.20942083    1.3059954 
  979000   0.93651841    2394.6897   0.17705843    1.4014645  -0.24078251     1.160682 
  980000    1.0017212    2394.6897   0.17705843    1.4990379  -0.22735243    1.2716855 
  981000    1.0380638    2394.6897   0.17705843    1.5534233  -0.20858139    1.3448419 
  982000      1.04533    2394.6897   0.17705843    1.5642969  -0.23676788    1.3275291 
  983000    1.0586557    2394.6897   0.17705843    1.5842383  -0.21491975    1.3693186 
  984000   0.98228713    2394.6897   0.17705843    1.4699556  -0.24070217    1.2292535 
  985000    1.0115624    2394.6897   0.17705843    1.5137649  -0.25000267    1.2637623 
  986000   0.96467623    2394.6897   0.17705843    1.4436016  -0.26161223    1.1819893 
  987000   0.98187589    2394.6897   0.17705843    1.4693402  -0.26469298    1.2046472 
  988000    1.0332413    2394.6897   0.17705843    1.5462066  -0.24729024    1.2989164 
  989000   0.99095049    2394.6897   0.17705843      1.48292  -0.24724336    1.2356767 
  990000     1.017918    2394.6897   0.17705843    1.5232758  -0.25663099    1.2666449 
  991000    1.0460095    2394.6897   0.17705843    1.5653138  -0.20000394    1.3653098 
  992000    1.0445799    2394.6897   0.17705843    1.5631744  -0.23803405    1.3251404 
  993000   0.98241505    2394.6897   0.17705843     1.470147  -0.24718937    1.2229577 
  994000   0.92480835    2394.6897   0.17705843    1.3839408   -0.2105522    1.1733886 
  995000    1.0337394    2394.6897   0.17705843     1.546952  -0.22168756    1.3252644 
  996000    1.0197258    2394.6897   0.17705843    1.5259811  -0.22612492    1.2998562 
  997000   0.94817582    2394.6897   0.17705843    1.4189093  -0.24039996    1.1785094 
  998000   0.97099005    2394.6897   0.17705843      1.45305  -0.22316651    1.2298834 
  999000     1.074665    2394.6897   0.17705843    1.6081956  -0.19045417    1.4177414 
 1000000    1.0174146    2394.6897   0.17705843    1.5225226  -0.17875506    1.3437675 
Loop time of 2344.45 on 4 procs for 800000 steps with 424 atoms

Pair  time (%) = 704.98 (30.0702)
Kspce time (%) = 1490.08 (63.5579)
Neigh time (%) = 41.3656 (1.76441)
Comm  time (%) = 66.6759 (2.84399)
Outpt time (%) = 5.1143 (0.218145)
Other time (%) = 36.2286 (1.54529)

Nlocal:    106 ave 113 max 100 min
Histogram: 1 1 0 0 0 0 1 0 0 1
Nghost:    554 ave 568 max 540 min
Histogram: 1 0 1 0 0 0 0 1 0 1
Neighs:    9683.25 ave 10793 max 8691 min
Histogram: 2 0 0 0 0 0 0 0 1 1

Total # of neighbors = 38733
Ave neighs/atom = 91.3514
Neighbor list builds = 60463
Dangerous builds = 0
System init for write_restart ...
PPPMDisp initialization ...
WARNING: Table inner cutoff >= outer cutoff (../pair.cpp:1607)
WARNING: Table inner cutoff >= outer cutoff (../pair.cpp:1607)
WARNING: Table inner cutoff >= outer cutoff (../pair.cpp:1607)
WARNING: Table inner cutoff >= outer cutoff (../pair.cpp:1607)
  Coulomb G vector (1/distance)= 0.359897
  Coulomb grid = 18 18 12
  Coulomb stencil order = 5
  Coulomb estimated absolute RMS force accuracy = 0.000101278
  Coulomb estimated relative force accuracy = 0.000101278
  using double precision FFTs
  3d grid and FFT values/proc = 2744 972
WARNING: Table inner cutoff >= outer cutoff (../pair.cpp:1607)
WARNING: Table inner cutoff >= outer cutoff (../pair.cpp:1607)
WARNING: Table inner cutoff >= outer cutoff (../pair.cpp:1607)
WARNING: Table inner cutoff >= outer cutoff (../pair.cpp:1607)
LAMMPS Simulation Ended
Application 17322458 resources: utime ~11706s, stime ~26s, Rss ~19284, inblocks ~34823, outblocks ~130090
Job Cleanup ran on Fri Feb 15 15:23:06 EST 2019
===============================
submit_args  : 	 submit_args = nanoconfinement-lammps.pbs
NIDS         : 	 395,415-417
NID Placement: 	 395/16 415/16 416/16 417/16 
