LAMMPS data file
424 atoms
2 atom types
-10.7281 10.7281 xlo xhi
-10.7281 10.7281 ylo yhi
-2.60084 2.60084 zlo zhi
 
Atoms
 
1   1   8.86201   9.14805   -5.4893   -0.0481097
2   1   8.86201   4.90854   5.31747   0.507904
3   1   8.86201   -3.77136   6.22694   0.0629838
4   1   8.86201   -6.77976   -0.50057   -0.344776
5   1   8.86201   -5.69363   -5.86705   -1.50372
6   1   8.86201   1.6351   8.14782   0.530083
7   1   8.86201   -0.0284278   1.24023   -1.01722
8   1   8.86201   -4.16232   -7.82638   -1.3994
9   1   8.86201   3.03009   4.61122   0.43905
10   1   8.86201   -8.02268   -7.5843   0.00769376
11   1   8.86201   -5.97773   -4.3181   -1.33454
12   1   8.86201   -7.60718   0.969041   -1.33728
13   1   8.86201   -4.25201   8.01115   -0.873682
14   1   8.86201   -1.39419   -7.34925   -0.318913
15   1   8.86201   3.82423   -6.73684   -0.189473
16   1   8.86201   -9.30071   -3.86017   0.0197898
17   1   8.86201   -2.74137   -6.93858   -0.127725
18   1   8.86201   -0.439055   -8.38486   -0.51634
19   1   8.86201   -8.28041   -1.29811   -0.0810878
20   1   8.86201   -1.65193   5.67736   0.398963
21   1   8.86201   -2.2276   2.49477   -0.490819
22   1   8.86201   -9.28367   2.31291   0.21571
23   1   8.86201   -0.0226241   4.57815   -1.13804
24   1   8.86201   -9.36276   -3.87059   -1.21138
25   1   8.86201   -5.27629   -2.43309   -0.191689
26   1   8.86201   2.04145   2.95745   -0.215709
27   1   8.86201   1.1449   4.43576   0.455799
28   1   8.86201   3.80029   -8.26109   -1.20725
29   1   8.86201   -9.06217   6.54747   -1.1989
30   1   8.86201   -3.76916   -6.5344   -1.14547
31   1   8.86201   3.36361   3.78828   -0.989313
32   1   8.86201   8.19222   -6.57348   0.575134
33   1   8.86201   -4.99326   2.84231   0.24304
34   1   8.86201   -4.93565   -6.30885   -0.17397
35   1   8.86201   3.09992   -9.65954   -0.352257
36   1   8.86201   6.70787   -4.42236   0.352837
37   1   8.86201   7.10091   3.05322   -1.34028
38   1   8.86201   -1.56704   -3.35363   -1.60004
39   1   8.86201   7.5451   -10.1513   -1.06985
40   1   8.86201   -4.10489   -3.69126   -0.637289
41   1   8.86201   0.78233   -1.87213   -0.920895
42   1   8.86201   -2.57784   -1.22351   -1.22337
43   1   8.86201   6.24795   -6.85504   -0.69627
44   1   8.86201   -6.69563   8.9157   0.579354
45   1   8.86201   -7.49319   -5.01666   -0.321945
46   1   8.86201   -2.67495   4.63051   -0.711294
47   1   8.86201   3.9597   0.0072556   -1.22174
48   1   8.86201   5.53247   8.46065   0.508935
49   1   8.86201   3.69688   1.09073   0.278564
50   1   8.86201   3.91984   -0.764083   0.237739
51   1   8.86201   -5.70811   -10.1825   -0.0139056
52   1   8.86201   4.88144   -1.13469   -0.263491
53   1   8.86201   1.57744   -7.51382   -0.583268
54   1   8.86201   2.55015   -7.55561   0.464917
55   1   8.86201   -7.48395   3.12829   -0.751723
56   1   8.86201   -2.41782   1.84546   0.543338
57   1   8.86201   1.11144   -9.82913   -1.01062
58   1   8.86201   1.94043   0.311849   -0.542065
59   1   8.86201   2.02671   -9.72231   -1.56159
60   1   8.86201   -9.07224   4.89063   -0.396444
61   1   8.86201   -3.16904   -8.55393   -0.888077
62   1   8.86201   -7.10903   -2.02154   0.101213
63   1   8.86201   6.37635   -9.39397   -1.2234
64   1   8.86201   1.5381   6.79888   -0.945642
65   1   8.86201   8.01999   7.09545   -0.619257
66   1   8.86201   -9.54565   4.22259   -0.980945
67   1   8.86201   0.183659   -9.78739   0.553035
68   1   8.86201   6.41431   6.28588   -0.0591451
69   1   8.86201   0.7675   5.74511   -0.525559
70   1   8.86201   -2.48829   3.03445   -1.45461
71   1   8.86201   -1.24106   -0.671216   -0.287885
72   1   8.86201   9.14722   -5.1437   -1.57937
73   1   8.86201   -1.13067   3.56038   -0.0112688
74   1   8.86201   -8.32259   7.98214   -0.173066
75   1   8.86201   6.455   0.674412   -1.42432
76   1   8.86201   -9.12378   8.16589   -1.13049
77   1   8.86201   8.85447   0.149697   0.206518
78   1   8.86201   6.15146   2.98431   -0.610818
79   1   8.86201   3.4979   2.15375   -1.12612
80   1   8.86201   7.98748   5.27865   -1.37573
81   1   8.86201   7.20253   5.63277   0.591975
82   1   8.86201   -3.16093   2.23225   -0.904338
83   1   8.86201   2.50395   -0.868594   0.176039
84   1   8.86201   -2.69313   -5.35561   -0.639459
85   1   8.86201   4.30261   -9.25697   -0.0239311
86   1   8.86201   -2.12521   6.48739   -0.483536
87   1   8.86201   1.79606   -0.216405   0.555409
88   1   8.86201   6.72294   0.343859   -0.0339124
89   1   8.86201   7.38037   -0.903567   -0.536632
90   1   8.86201   -9.01814   -0.976868   -0.904942
91   1   8.86201   -3.15829   1.02224   -0.583915
92   1   8.86201   -3.52198   -4.36327   -1.14455
93   1   8.86201   -8.19719   -6.29372   -0.613516
94   1   8.86201   -7.98075   -2.98082   0.17847
95   1   8.86201   3.90097   2.94193   -0.438296
96   1   8.86201   4.99856   5.47484   -0.815012
97   1   8.86201   3.43684   7.91635   -0.426304
98   1   8.86201   0.64553   0.0581771   -0.593772
99   1   8.86201   2.50674   -9.82096   0.564633
100   1   8.86201   8.01565   -9.30175   -0.231926
101   1   8.86201   -5.585   -0.325807   -1.0737
102   1   8.86201   -8.391   -2.36753   -1.52453
103   1   8.86201   6.67283   8.93232   -0.814541
104   1   8.86201   2.8575   -0.13634   -1.36568
105   1   8.86201   5.31037   -2.91363   0.0288675
106   1   8.86201   4.88699   1.38945   -0.675373
107   1   8.86201   -4.93211   -0.443687   -0.200614
108   1   8.86201   -5.29346   -7.01428   -0.902039
109   1   8.86201   -7.84952   5.09398   -1.09404
110   1   8.86201   -9.87742   0.87925   -0.582648
111   1   8.86201   -8.33934   -4.06264   0.438961
112   1   8.86201   -6.46166   -3.21561   0.340764
113   1   8.86201   6.91823   -6.4194   -1.50391
114   1   8.86201   -1.88206   7.8118   0.473693
115   1   8.86201   -5.38026   0.58929   -0.660406
116   1   8.86201   -8.29868   8.88903   -1.21126
117   1   8.86201   -3.07495   -8.857   0.455269
118   1   8.86201   3.93675   -3.37678   -0.40263
119   1   8.86201   -0.740995   0.553472   -0.0214196
120   1   8.86201   -4.75026   1.69945   -1.41722
121   1   8.86201   3.1167   -0.965434   -0.623595
122   1   8.86201   8.63932   -7.7561   -0.307973
123   1   8.86201   -4.90356   5.70409   0.537374
124   1   8.86201   -0.742371   2.33797   -0.786107
125   1   8.86201   6.31449   -5.54398   -0.158554
126   1   8.86201   0.278091   1.19178   0.531955
127   1   8.86201   0.505176   -0.968081   0.418598
128   1   8.86201   4.10962   -2.5156   0.588457
129   1   8.86201   -6.17598   2.40158   -0.276221
130   1   8.86201   -9.23048   0.584415   0.37379
131   1   8.86201   -4.68565   6.15409   -0.847888
132   1   8.86201   8.25996   -4.93401   -0.988242
133   1   8.86201   -9.97425   7.22952   0.387431
134   1   8.86201   5.78168   -9.61275   0.0147618
135   1   8.86201   -0.844388   8.22952   0.153376
136   1   8.86201   5.64858   -4.18187   -1.47004
137   1   8.86201   0.146454   3.84886   -0.017084
138   1   8.86201   -0.929817   -1.60622   -1.47517
139   1   8.86201   1.4518   -5.8319   0.5969
140   1   8.86201   -6.89664   6.1905   -1.33303
141   1   8.86201   2.8285   -5.50566   0.256437
142   1   8.86201   -0.630042   -3.90149   0.540477
143   1   8.86201   -8.79762   1.03233   -1.57107
144   1   8.86201   0.336333   -2.9216   -0.0565516
145   1   8.86201   2.66464   -6.25455   -0.918621
146   1   8.86201   -9.92949   -2.72741   -0.511946
147   1   8.86201   4.53692   -2.70978   -1.5335
148   1   8.86201   7.43861   -7.42573   -1.43299
149   1   8.86201   -9.5183   -8.32319   0.497084
150   1   8.86201   6.52319   4.42416   -0.293838
151   1   8.86201   -6.80466   -4.27416   -0.387322
152   1   8.86201   -0.812562   -4.94205   -0.222506
153   1   8.86201   -4.24604   5.00286   -1.37262
154   1   8.86201   -5.51044   -3.42529   -0.369373
155   1   8.86201   8.91896   -1.20748   0.0515604
156   1   8.86201   -0.834725   6.44055   -1.32547
157   1   8.86201   -7.35084   3.78603   0.479044
158   1   8.86201   -1.19486   -9.72088   -0.65025
159   1   8.86201   -3.65143   3.54864   -0.121532
160   1   8.86201   -10.2057   6.32006   -0.512571
161   1   8.86201   -4.85582   -1.68388   -0.719502
162   1   8.86201   -5.84141   0.892562   0.596374
163   1   8.86201   -10.1672   -6.38658   0.530634
164   1   8.86201   8.67828   -2.78033   -0.171008
165   1   8.86201   5.62091   -0.431914   -1.24107
166   1   8.86201   1.54238   -3.34942   0.0594142
167   1   8.86201   -7.34732   0.715633   0.224414
168   1   8.86201   7.7351   8.75101   -1.07305
169   1   8.86201   -9.17321   6.62155   0.271473
170   1   8.86201   -10.0851   3.34081   -0.06437
171   1   8.86201   -9.01954   3.08726   -0.901633
172   1   8.86201   -2.02545   -7.09004   -1.38629
173   1   8.86201   1.96532   5.121   0.062218
174   1   8.86201   -6.67441   -8.00964   0.046146
175   1   8.86201   -5.44305   4.79964   0.585062
176   1   8.86201   -0.711656   -5.97482   -1.28744
177   1   8.86201   0.383681   -8.27211   -1.22774
178   1   8.86201   4.47021   4.41151   -0.449194
179   1   8.86201   4.23021   7.31518   -1.18766
180   1   8.86201   -7.98204   -8.67627   -0.222485
181   1   8.86201   7.6013   2.48688   0.500728
182   1   8.86201   -2.82976   -1.20331   0.205557
183   1   8.86201   8.52972   3.76469   -0.925958
184   1   8.86201   4.0049   -8.19995   0.203612
185   1   8.86201   1.65475   2.50548   -1.47646
186   1   8.86201   9.13618   8.55282   -1.31263
187   1   8.86201   7.17728   -3.74144   -0.931378
188   1   8.86201   -2.04619   0.945587   -1.25282
189   1   8.86201   -9.31782   9.05281   0.513328
190   1   8.86201   -3.63571   6.62745   -1.36085
191   1   8.86201   6.9547   8.21963   0.27188
192   1   8.86201   2.83806   -3.40852   -1.12388
193   1   8.86201   0.678142   2.71748   0.183927
194   1   8.86201   -8.96086   -7.1791   -1.43238
195   1   8.86201   -8.43194   3.82322   -0.521448
196   1   8.86201   -7.01177   6.75523   -0.419154
197   1   8.86201   -5.37105   7.90268   -0.840415
198   1   8.86201   4.39476   -5.82451   -1.41194
199   1   8.86201   -9.30912   -9.72383   0.2841
200   1   8.86201   4.28191   9.03578   -0.74973
201   1   8.86201   0.275161   6.39929   0.0578024
202   1   8.86201   1.91942   -2.06433   0.295196
203   1   8.86201   5.49813   7.40191   0.0652473
204   1   8.86201   -1.57724   1.36589   -0.264844
205   1   8.86201   -6.90832   5.64812   0.281282
206   1   8.86201   8.67429   5.74858   0.0509741
207   1   8.86201   -3.16485   -2.37401   -1.37591
208   1   8.86201   -10.1108   7.3734   -1.21742
209   1   8.86201   2.2199   6.61994   0.580026
210   1   8.86201   -5.24853   4.06224   -0.758483
211   1   8.86201   7.06741   -7.66854   -0.134637
212   1   8.86201   -5.1549   -7.58255   0.275092
213   2   -8.86201   -2.61431   -10.1989   -0.418476
214   2   -8.86201   7.46901   -1.57177   0.452126
215   2   -8.86201   8.95664   -8.82209   -1.10298
216   2   -8.86201   -8.16811   6.09902   -0.367551
217   2   -8.86201   3.14986   -2.01202   0.590475
218   2   -8.86201   -0.558411   -6.80805   0.40291
219   2   -8.86201   -8.63574   -4.93393   -0.588652
220   2   -8.86201   5.25166   0.405604   0.0852027
221   2   -8.86201   6.87186   5.56891   -0.928461
222   2   -8.86201   6.30925   -3.28794   -0.145061
223   2   -8.86201   6.28382   -1.24118   -0.526962
224   2   -8.86201   9.03958   -1.05723   -1.15434
225   2   -8.86201   5.22828   4.68549   -1.59146
226   2   -8.86201   -7.27612   -6.6673   0.375126
227   2   -8.86201   1.48286   -5.15704   -0.254543
228   2   -8.86201   -9.10577   -6.70512   -0.486399
229   2   -8.86201   -1.80302   5.50787   -1.2381
230   2   -8.86201   0.633055   -5.86385   -0.999154
231   2   -8.86201   -10.1731   -7.28672   -1.30434
232   2   -8.86201   -4.9307   7.13162   0.212056
233   2   -8.86201   -3.47578   -3.28281   0.171191
234   2   -8.86201   -1.81496   4.23832   0.596435
235   2   -8.86201   -0.101091   -6.90054   -0.696567
236   2   -8.86201   8.174   1.48843   -0.83124
237   2   -8.86201   9.18053   0.0409331   -0.762917
238   2   -8.86201   -5.58226   -8.19884   -1.1086
239   2   -8.86201   1.41253   8.03826   -0.802485
240   2   -8.86201   7.68738   -1.76935   -1.19294
241   2   -8.86201   -3.65765   0.779821   0.487759
242   2   -8.86201   3.02393   5.73513   -1.45515
243   2   -8.86201   -3.10128   8.34692   -1.14535
244   2   -8.86201   -5.93149   -1.58903   0.213325
245   2   -8.86201   7.97062   -5.38369   0.316489
246   2   -8.86201   -0.840762   5.46555   -0.656069
247   2   -8.86201   8.645   2.5748   -0.756262
248   2   -8.86201   -0.243794   -1.62088   -0.584567
249   2   -8.86201   -4.37398   2.13349   -0.449274
250   2   -8.86201   -6.6753   4.61175   -1.07594
251   2   -8.86201   -1.63492   -4.09486   -0.859003
252   2   -8.86201   -5.74808   5.58185   -1.02341
253   2   -8.86201   4.62657   -9.03545   -1.21111
254   2   -8.86201   -3.51038   -2.03042   -0.215597
255   2   -8.86201   -8.87602   -5.67362   -1.48492
256   2   -8.86201   6.00877   -8.63894   0.572107
257   2   -8.86201   -3.11299   5.64209   -0.726988
258   2   -8.86201   2.43909   1.17967   -1.38481
259   2   -8.86201   -3.65948   -0.317817   -0.384664
260   2   -8.86201   6.82715   3.02134   0.125868
261   2   -8.86201   -7.45777   -3.45795   -1.29334
262   2   -8.86201   -6.47163   -3.16127   -0.66498
263   2   -8.86201   -1.87797   4.27805   -1.58333
264   2   -8.86201   -2.77833   9.13127   0.487264
265   2   -8.86201   -5.96031   6.64037   -0.796065
266   2   -8.86201   1.17343   -6.53998   -0.213615
267   2   -8.86201   2.10638   -4.74166   -1.48592
268   2   -8.86201   -1.83813   -2.10538   -1.28201
269   2   -8.86201   -9.41765   9.10128   -0.911564
270   2   -8.86201   -9.29071   -5.24532   0.303903
271   2   -8.86201   8.28487   8.42555   -0.0953009
272   2   -8.86201   -9.97629   -6.13616   -1.35178
273   2   -8.86201   7.96665   0.75498   0.0364377
274   2   -8.86201   0.0799507   -0.736699   -0.98009
275   2   -8.86201   -9.73947   -1.0024   0.538399
276   2   -8.86201   -2.8549   4.54723   0.298229
277   2   -8.86201   2.30878   -6.49749   0.480416
278   2   -8.86201   7.59633   -2.77712   0.0208178
279   2   -8.86201   3.76259   1.24481   -1.53548
280   2   -8.86201   -9.04845   -1.87744   0.595131
281   2   -8.86201   -1.615   -5.5675   -0.170149
282   2   -8.86201   -7.47775   -9.59139   -0.134486
283   2   -8.86201   -3.75882   -4.4983   0.390393
284   2   -8.86201   2.28445   1.0556   0.0324938
285   2   -8.86201   -6.20572   7.97533   -0.280062
286   2   -8.86201   6.27476   -2.75356   -1.4511
287   2   -8.86201   4.23386   6.39819   -0.337088
288   2   -8.86201   -6.87844   -6.82408   -0.848028
289   2   -8.86201   1.06669   -8.83901   0.00736154
290   2   -8.86201   -2.63131   0.313918   0.405197
291   2   -8.86201   -4.29127   -9.92141   0.376689
292   2   -8.86201   5.47288   2.10721   0.251783
293   2   -8.86201   4.7394   -4.16998   -0.943135
294   2   -8.86201   7.82498   5.32454   -0.321667
295   2   -8.86201   7.6028   6.32446   -1.56046
296   2   -8.86201   -2.96602   7.34021   0.31832
297   2   -8.86201   8.5718   -9.94842   -1.12912
298   2   -8.86201   -8.11575   4.90328   0.437832
299   2   -8.86201   -4.00834   -8.67787   -0.318602
300   2   -8.86201   -2.23625   -9.80536   -1.44407
301   2   -8.86201   -0.714547   6.42577   0.600701
302   2   -8.86201   0.284457   -9.32469   -0.655847
303   2   -8.86201   0.588192   9.15567   -0.0226194
304   2   -8.86201   8.76816   -3.43374   -1.58956
305   2   -8.86201   3.09175   -7.66473   -0.392509
306   2   -8.86201   -5.74479   -3.28552   -1.4833
307   2   -8.86201   0.380586   -4.67065   -1.33192
308   2   -8.86201   2.04398   4.90728   -1.20438
309   2   -8.86201   -3.73212   -6.31035   0.156672
310   2   -8.86201   9.00473   6.76668   -1.28684
311   2   -8.86201   -5.71262   8.92811   -0.0123829
312   2   -8.86201   -1.28889   -0.0692177   -1.18606
313   2   -8.86201   -10.2069   5.01246   -1.36739
314   2   -8.86201   5.65176   1.876   -1.19803
315   2   -8.86201   -8.62245   -10.001   -0.938117
316   2   -8.86201   -4.94576   -5.00263   -1.06054
317   2   -8.86201   -4.10398   -9.92482   -1.26289
318   2   -8.86201   8.71125   2.8293   0.212862
319   2   -8.86201   -2.59771   -2.12863   0.58134
320   2   -8.86201   4.07744   -2.32063   -0.569242
321   2   -8.86201   6.87356   -9.23674   0.53572
322   2   -8.86201   -2.09412   9.214   -0.389401
323   2   -8.86201   5.52435   -6.55652   0.358431
324   2   -8.86201   -4.33507   -2.17505   0.4094
325   2   -8.86201   1.68163   -0.898613   -1.02033
326   2   -8.86201   1.90751   -4.2804   -0.503003
327   2   -8.86201   -0.188368   7.72956   -0.829436
328   2   -8.86201   -7.89081   1.88364   0.525921
329   2   -8.86201   4.96502   -8.26584   -0.0992657
330   2   -8.86201   5.80206   9.12728   -0.274372
331   2   -8.86201   -5.44924   1.70707   -0.375788
332   2   -8.86201   8.95256   -3.62599   0.585928
333   2   -8.86201   -4.04416   1.0059   -1.16027
334   2   -8.86201   6.96344   7.36439   -1.10556
335   2   -8.86201   1.70455   3.69291   -1.28388
336   2   -8.86201   2.07234   -8.70864   -1.38838
337   2   -8.86201   -3.62366   4.00806   -1.06571
338   2   -8.86201   -9.66621   -9.26266   -1.10813
339   2   -8.86201   -7.77426   -1.25736   -1.07613
340   2   -8.86201   3.74826   -4.36745   -1.42258
341   2   -8.86201   -1.14692   1.61262   -1.45887
342   2   -8.86201   3.49223   -1.17761   -1.58691
343   2   -8.86201   -1.88868   -8.51453   -0.766504
344   2   -8.86201   -5.52237   -1.31145   -1.40512
345   2   -8.86201   1.18071   5.98087   -1.5744
346   2   -8.86201   -6.94646   -8.02452   -1.19543
347   2   -8.86201   8.23495   -3.80478   -0.5578
348   2   -8.86201   4.17142   -5.06542   -0.470495
349   2   -8.86201   0.0741377   -5.49547   0.278278
350   2   -8.86201   -8.05878   2.283   -1.20284
351   2   -8.86201   -6.51077   -5.4642   -0.902157
352   2   -8.86201   -6.94882   8.4577   -1.09705
353   2   -8.86201   5.82077   -7.64398   0.236781
354   2   -8.86201   3.18917   3.56762   0.485337
355   2   -8.86201   -0.512508   -2.69042   0.531577
356   2   -8.86201   0.225322   -7.98989   0.122316
357   2   -8.86201   5.86013   -1.55517   0.325347
358   2   -8.86201   6.45443   1.89866   0.296161
359   2   -8.86201   5.35293   -9.90077   -1.25678
360   2   -8.86201   -5.29979   -8.52094   -0.143662
361   2   -8.86201   -3.2627   0.225486   -1.28205
362   2   -8.86201   4.55229   2.51244   0.187806
363   2   -8.86201   -1.36995   7.71142   -0.898246
364   2   -8.86201   -6.48666   1.44427   -1.11169
365   2   -8.86201   0.946165   -3.6159   -0.984537
366   2   -8.86201   3.0904   -4.28547   -0.00125636
367   2   -8.86201   -5.44099   3.07157   -1.05835
368   2   -8.86201   -8.14936   1.38777   -0.321974
369   2   -8.86201   5.71717   -7.59225   -1.33104
370   2   -8.86201   -2.2666   -3.02684   -0.218692
371   2   -8.86201   2.5791   9.16095   0.208991
372   2   -8.86201   3.04015   2.26149   0.402374
373   2   -8.86201   1.15   1.32571   -0.51854
374   2   -8.86201   -0.209722   -3.71311   -1.49669
375   2   -8.86201   -2.61489   -4.66621   0.164093
376   2   -8.86201   3.46607   7.16996   0.391385
377   2   -8.86201   -5.79728   2.12735   -1.46536
378   2   -8.86201   8.98582   4.79936   0.00103761
379   2   -8.86201   7.11121   -6.16894   -0.518467
380   2   -8.86201   -7.81297   8.73208   0.277029
381   2   -8.86201   9.10347   1.67912   -0.146258
382   2   -8.86201   3.07908   -7.39265   -1.51251
383   2   -8.86201   -5.64842   -9.15139   0.577935
384   2   -8.86201   -8.79182   -2.8081   -0.600987
385   2   -8.86201   9.08115   -4.37319   -0.818036
386   2   -8.86201   5.26288   3.38361   -1.3932
387   2   -8.86201   -9.82989   2.2168   -0.885579
388   2   -8.86201   -6.2353   3.84125   -0.421434
389   2   -8.86201   -2.01669   -5.24898   -1.40206
390   2   -8.86201   -1.18157   -2.04687   -0.0380308
391   2   -8.86201   -4.31903   7.94825   0.543995
392   2   -8.86201   -5.81172   -5.3251   0.539486
393   2   -8.86201   0.742804   1.64438   -1.52511
394   2   -8.86201   -2.60271   7.25441   -0.929668
395   2   -8.86201   -8.23323   -7.9905   -1.58818
396   2   -8.86201   -7.27399   -2.44092   -0.962039
397   2   -8.86201   7.75847   3.46671   0.125688
398   2   -8.86201   5.27111   3.43878   0.228771
399   2   -8.86201   3.07291   8.35178   -1.37679
400   2   -8.86201   -10.1784   -4.55293   -0.905059
401   2   -8.86201   0.837896   4.21867   -0.720925
402   2   -8.86201   3.11724   -1.97528   -0.973294
403   2   -8.86201   -0.797171   3.20281   -1.54349
404   2   -8.86201   2.66221   7.06492   -1.2922
405   2   -8.86201   9.13288   -9.6721   -0.266753
406   2   -8.86201   -0.797912   -7.79649   0.446781
407   2   -8.86201   -2.13191   8.69212   -1.35329
408   2   -8.86201   8.79534   -8.54616   0.525625
409   2   -8.86201   8.31949   7.09916   0.563464
410   2   -8.86201   0.969933   5.57276   0.590197
411   2   -8.86201   -0.446476   2.81931   0.526779
412   2   -8.86201   -5.91958   -9.30807   -1.08816
413   2   -8.86201   -0.0595929   9.00775   -1.03061
414   2   -8.86201   2.01869   9.08932   -0.772501
415   2   -8.86201   4.42362   7.45718   -0.215106
416   2   -8.86201   -3.47219   2.23857   0.542911
417   2   -8.86201   -4.10864   -7.55084   -0.11003
418   2   -8.86201   -7.48455   -0.132212   -1.572
419   2   -8.86201   -4.54559   8.78025   -1.48939
420   2   -8.86201   6.38807   -0.99736   -1.55299
421   2   -8.86201   0.987361   0.66042   -1.43355
422   2   -8.86201   4.09694   -9.97983   -1.24331
423   2   -8.86201   0.467064   2.95677   -1.34663
424   2   -8.86201   -7.35419   -9.95683   -1.59528
