ITEM: TIMESTEP
0
ITEM: NUMBER OF ATOMS
676
ITEM: BOX BOUNDS
-10.7281	10.7281
-10.7281	10.7281
-2.10084	2.10084
ITEM: ATOMS index type x y z
1  1  -10.7281  -10.7281  2.60084
2  1  -9.86987  -10.7281  2.60084
3  1  -9.01162  -10.7281  2.60084
4  1  -8.15337  -10.7281  2.60084
5  1  -7.29512  -10.7281  2.60084
6  1  -6.43687  -10.7281  2.60084
7  1  -5.57862  -10.7281  2.60084
8  1  -4.72037  -10.7281  2.60084
9  1  -3.86212  -10.7281  2.60084
10  1  -3.00387  -10.7281  2.60084
11  1  -2.14562  -10.7281  2.60084
12  1  -1.28737  -10.7281  2.60084
13  1  -0.429125  -10.7281  2.60084
14  1  0.429125  -10.7281  2.60084
15  1  1.28737  -10.7281  2.60084
16  1  2.14562  -10.7281  2.60084
17  1  3.00387  -10.7281  2.60084
18  1  3.86212  -10.7281  2.60084
19  1  4.72037  -10.7281  2.60084
20  1  5.57862  -10.7281  2.60084
21  1  6.43687  -10.7281  2.60084
22  1  7.29512  -10.7281  2.60084
23  1  8.15337  -10.7281  2.60084
24  1  9.01162  -10.7281  2.60084
25  1  9.86987  -10.7281  2.60084
26  1  10.7281  -10.7281  2.60084
27  1  -10.7281  -9.86987  2.60084
28  1  -9.86987  -9.86987  2.60084
29  1  -9.01162  -9.86987  2.60084
30  1  -8.15337  -9.86987  2.60084
31  1  -7.29512  -9.86987  2.60084
32  1  -6.43687  -9.86987  2.60084
33  1  -5.57862  -9.86987  2.60084
34  1  -4.72037  -9.86987  2.60084
35  1  -3.86212  -9.86987  2.60084
36  1  -3.00387  -9.86987  2.60084
37  1  -2.14562  -9.86987  2.60084
38  1  -1.28737  -9.86987  2.60084
39  1  -0.429125  -9.86987  2.60084
40  1  0.429125  -9.86987  2.60084
41  1  1.28737  -9.86987  2.60084
42  1  2.14562  -9.86987  2.60084
43  1  3.00387  -9.86987  2.60084
44  1  3.86212  -9.86987  2.60084
45  1  4.72037  -9.86987  2.60084
46  1  5.57862  -9.86987  2.60084
47  1  6.43687  -9.86987  2.60084
48  1  7.29512  -9.86987  2.60084
49  1  8.15337  -9.86987  2.60084
50  1  9.01162  -9.86987  2.60084
51  1  9.86987  -9.86987  2.60084
52  1  10.7281  -9.86987  2.60084
53  1  -10.7281  -9.01162  2.60084
54  1  -9.86987  -9.01162  2.60084
55  1  -9.01162  -9.01162  2.60084
56  1  -8.15337  -9.01162  2.60084
57  1  -7.29512  -9.01162  2.60084
58  1  -6.43687  -9.01162  2.60084
59  1  -5.57862  -9.01162  2.60084
60  1  -4.72037  -9.01162  2.60084
61  1  -3.86212  -9.01162  2.60084
62  1  -3.00387  -9.01162  2.60084
63  1  -2.14562  -9.01162  2.60084
64  1  -1.28737  -9.01162  2.60084
65  1  -0.429125  -9.01162  2.60084
66  1  0.429125  -9.01162  2.60084
67  1  1.28737  -9.01162  2.60084
68  1  2.14562  -9.01162  2.60084
69  1  3.00387  -9.01162  2.60084
70  1  3.86212  -9.01162  2.60084
71  1  4.72037  -9.01162  2.60084
72  1  5.57862  -9.01162  2.60084
73  1  6.43687  -9.01162  2.60084
74  1  7.29512  -9.01162  2.60084
75  1  8.15337  -9.01162  2.60084
76  1  9.01162  -9.01162  2.60084
77  1  9.86987  -9.01162  2.60084
78  1  10.7281  -9.01162  2.60084
79  1  -10.7281  -8.15337  2.60084
80  1  -9.86987  -8.15337  2.60084
81  1  -9.01162  -8.15337  2.60084
82  1  -8.15337  -8.15337  2.60084
83  1  -7.29512  -8.15337  2.60084
84  1  -6.43687  -8.15337  2.60084
85  1  -5.57862  -8.15337  2.60084
86  1  -4.72037  -8.15337  2.60084
87  1  -3.86212  -8.15337  2.60084
88  1  -3.00387  -8.15337  2.60084
89  1  -2.14562  -8.15337  2.60084
90  1  -1.28737  -8.15337  2.60084
91  1  -0.429125  -8.15337  2.60084
92  1  0.429125  -8.15337  2.60084
93  1  1.28737  -8.15337  2.60084
94  1  2.14562  -8.15337  2.60084
95  1  3.00387  -8.15337  2.60084
96  1  3.86212  -8.15337  2.60084
97  1  4.72037  -8.15337  2.60084
98  1  5.57862  -8.15337  2.60084
99  1  6.43687  -8.15337  2.60084
100  1  7.29512  -8.15337  2.60084
101  1  8.15337  -8.15337  2.60084
102  1  9.01162  -8.15337  2.60084
103  1  9.86987  -8.15337  2.60084
104  1  10.7281  -8.15337  2.60084
105  1  -10.7281  -7.29512  2.60084
106  1  -9.86987  -7.29512  2.60084
107  1  -9.01162  -7.29512  2.60084
108  1  -8.15337  -7.29512  2.60084
109  1  -7.29512  -7.29512  2.60084
110  1  -6.43687  -7.29512  2.60084
111  1  -5.57862  -7.29512  2.60084
112  1  -4.72037  -7.29512  2.60084
113  1  -3.86212  -7.29512  2.60084
114  1  -3.00387  -7.29512  2.60084
115  1  -2.14562  -7.29512  2.60084
116  1  -1.28737  -7.29512  2.60084
117  1  -0.429125  -7.29512  2.60084
118  1  0.429125  -7.29512  2.60084
119  1  1.28737  -7.29512  2.60084
120  1  2.14562  -7.29512  2.60084
121  1  3.00387  -7.29512  2.60084
122  1  3.86212  -7.29512  2.60084
123  1  4.72037  -7.29512  2.60084
124  1  5.57862  -7.29512  2.60084
125  1  6.43687  -7.29512  2.60084
126  1  7.29512  -7.29512  2.60084
127  1  8.15337  -7.29512  2.60084
128  1  9.01162  -7.29512  2.60084
129  1  9.86987  -7.29512  2.60084
130  1  10.7281  -7.29512  2.60084
131  1  -10.7281  -6.43687  2.60084
132  1  -9.86987  -6.43687  2.60084
133  1  -9.01162  -6.43687  2.60084
134  1  -8.15337  -6.43687  2.60084
135  1  -7.29512  -6.43687  2.60084
136  1  -6.43687  -6.43687  2.60084
137  1  -5.57862  -6.43687  2.60084
138  1  -4.72037  -6.43687  2.60084
139  1  -3.86212  -6.43687  2.60084
140  1  -3.00387  -6.43687  2.60084
141  1  -2.14562  -6.43687  2.60084
142  1  -1.28737  -6.43687  2.60084
143  1  -0.429125  -6.43687  2.60084
144  1  0.429125  -6.43687  2.60084
145  1  1.28737  -6.43687  2.60084
146  1  2.14562  -6.43687  2.60084
147  1  3.00387  -6.43687  2.60084
148  1  3.86212  -6.43687  2.60084
149  1  4.72037  -6.43687  2.60084
150  1  5.57862  -6.43687  2.60084
151  1  6.43687  -6.43687  2.60084
152  1  7.29512  -6.43687  2.60084
153  1  8.15337  -6.43687  2.60084
154  1  9.01162  -6.43687  2.60084
155  1  9.86987  -6.43687  2.60084
156  1  10.7281  -6.43687  2.60084
157  1  -10.7281  -5.57862  2.60084
158  1  -9.86987  -5.57862  2.60084
159  1  -9.01162  -5.57862  2.60084
160  1  -8.15337  -5.57862  2.60084
161  1  -7.29512  -5.57862  2.60084
162  1  -6.43687  -5.57862  2.60084
163  1  -5.57862  -5.57862  2.60084
164  1  -4.72037  -5.57862  2.60084
165  1  -3.86212  -5.57862  2.60084
166  1  -3.00387  -5.57862  2.60084
167  1  -2.14562  -5.57862  2.60084
168  1  -1.28737  -5.57862  2.60084
169  1  -0.429125  -5.57862  2.60084
170  1  0.429125  -5.57862  2.60084
171  1  1.28737  -5.57862  2.60084
172  1  2.14562  -5.57862  2.60084
173  1  3.00387  -5.57862  2.60084
174  1  3.86212  -5.57862  2.60084
175  1  4.72037  -5.57862  2.60084
176  1  5.57862  -5.57862  2.60084
177  1  6.43687  -5.57862  2.60084
178  1  7.29512  -5.57862  2.60084
179  1  8.15337  -5.57862  2.60084
180  1  9.01162  -5.57862  2.60084
181  1  9.86987  -5.57862  2.60084
182  1  10.7281  -5.57862  2.60084
183  1  -10.7281  -4.72037  2.60084
184  1  -9.86987  -4.72037  2.60084
185  1  -9.01162  -4.72037  2.60084
186  1  -8.15337  -4.72037  2.60084
187  1  -7.29512  -4.72037  2.60084
188  1  -6.43687  -4.72037  2.60084
189  1  -5.57862  -4.72037  2.60084
190  1  -4.72037  -4.72037  2.60084
191  1  -3.86212  -4.72037  2.60084
192  1  -3.00387  -4.72037  2.60084
193  1  -2.14562  -4.72037  2.60084
194  1  -1.28737  -4.72037  2.60084
195  1  -0.429125  -4.72037  2.60084
196  1  0.429125  -4.72037  2.60084
197  1  1.28737  -4.72037  2.60084
198  1  2.14562  -4.72037  2.60084
199  1  3.00387  -4.72037  2.60084
200  1  3.86212  -4.72037  2.60084
201  1  4.72037  -4.72037  2.60084
202  1  5.57862  -4.72037  2.60084
203  1  6.43687  -4.72037  2.60084
204  1  7.29512  -4.72037  2.60084
205  1  8.15337  -4.72037  2.60084
206  1  9.01162  -4.72037  2.60084
207  1  9.86987  -4.72037  2.60084
208  1  10.7281  -4.72037  2.60084
209  1  -10.7281  -3.86212  2.60084
210  1  -9.86987  -3.86212  2.60084
211  1  -9.01162  -3.86212  2.60084
212  1  -8.15337  -3.86212  2.60084
213  1  -7.29512  -3.86212  2.60084
214  1  -6.43687  -3.86212  2.60084
215  1  -5.57862  -3.86212  2.60084
216  1  -4.72037  -3.86212  2.60084
217  1  -3.86212  -3.86212  2.60084
218  1  -3.00387  -3.86212  2.60084
219  1  -2.14562  -3.86212  2.60084
220  1  -1.28737  -3.86212  2.60084
221  1  -0.429125  -3.86212  2.60084
222  1  0.429125  -3.86212  2.60084
223  1  1.28737  -3.86212  2.60084
224  1  2.14562  -3.86212  2.60084
225  1  3.00387  -3.86212  2.60084
226  1  3.86212  -3.86212  2.60084
227  1  4.72037  -3.86212  2.60084
228  1  5.57862  -3.86212  2.60084
229  1  6.43687  -3.86212  2.60084
230  1  7.29512  -3.86212  2.60084
231  1  8.15337  -3.86212  2.60084
232  1  9.01162  -3.86212  2.60084
233  1  9.86987  -3.86212  2.60084
234  1  10.7281  -3.86212  2.60084
235  1  -10.7281  -3.00387  2.60084
236  1  -9.86987  -3.00387  2.60084
237  1  -9.01162  -3.00387  2.60084
238  1  -8.15337  -3.00387  2.60084
239  1  -7.29512  -3.00387  2.60084
240  1  -6.43687  -3.00387  2.60084
241  1  -5.57862  -3.00387  2.60084
242  1  -4.72037  -3.00387  2.60084
243  1  -3.86212  -3.00387  2.60084
244  1  -3.00387  -3.00387  2.60084
245  1  -2.14562  -3.00387  2.60084
246  1  -1.28737  -3.00387  2.60084
247  1  -0.429125  -3.00387  2.60084
248  1  0.429125  -3.00387  2.60084
249  1  1.28737  -3.00387  2.60084
250  1  2.14562  -3.00387  2.60084
251  1  3.00387  -3.00387  2.60084
252  1  3.86212  -3.00387  2.60084
253  1  4.72037  -3.00387  2.60084
254  1  5.57862  -3.00387  2.60084
255  1  6.43687  -3.00387  2.60084
256  1  7.29512  -3.00387  2.60084
257  1  8.15337  -3.00387  2.60084
258  1  9.01162  -3.00387  2.60084
259  1  9.86987  -3.00387  2.60084
260  1  10.7281  -3.00387  2.60084
261  1  -10.7281  -2.14562  2.60084
262  1  -9.86987  -2.14562  2.60084
263  1  -9.01162  -2.14562  2.60084
264  1  -8.15337  -2.14562  2.60084
265  1  -7.29512  -2.14562  2.60084
266  1  -6.43687  -2.14562  2.60084
267  1  -5.57862  -2.14562  2.60084
268  1  -4.72037  -2.14562  2.60084
269  1  -3.86212  -2.14562  2.60084
270  1  -3.00387  -2.14562  2.60084
271  1  -2.14562  -2.14562  2.60084
272  1  -1.28737  -2.14562  2.60084
273  1  -0.429125  -2.14562  2.60084
274  1  0.429125  -2.14562  2.60084
275  1  1.28737  -2.14562  2.60084
276  1  2.14562  -2.14562  2.60084
277  1  3.00387  -2.14562  2.60084
278  1  3.86212  -2.14562  2.60084
279  1  4.72037  -2.14562  2.60084
280  1  5.57862  -2.14562  2.60084
281  1  6.43687  -2.14562  2.60084
282  1  7.29512  -2.14562  2.60084
283  1  8.15337  -2.14562  2.60084
284  1  9.01162  -2.14562  2.60084
285  1  9.86987  -2.14562  2.60084
286  1  10.7281  -2.14562  2.60084
287  1  -10.7281  -1.28737  2.60084
288  1  -9.86987  -1.28737  2.60084
289  1  -9.01162  -1.28737  2.60084
290  1  -8.15337  -1.28737  2.60084
291  1  -7.29512  -1.28737  2.60084
292  1  -6.43687  -1.28737  2.60084
293  1  -5.57862  -1.28737  2.60084
294  1  -4.72037  -1.28737  2.60084
295  1  -3.86212  -1.28737  2.60084
296  1  -3.00387  -1.28737  2.60084
297  1  -2.14562  -1.28737  2.60084
298  1  -1.28737  -1.28737  2.60084
299  1  -0.429125  -1.28737  2.60084
300  1  0.429125  -1.28737  2.60084
301  1  1.28737  -1.28737  2.60084
302  1  2.14562  -1.28737  2.60084
303  1  3.00387  -1.28737  2.60084
304  1  3.86212  -1.28737  2.60084
305  1  4.72037  -1.28737  2.60084
306  1  5.57862  -1.28737  2.60084
307  1  6.43687  -1.28737  2.60084
308  1  7.29512  -1.28737  2.60084
309  1  8.15337  -1.28737  2.60084
310  1  9.01162  -1.28737  2.60084
311  1  9.86987  -1.28737  2.60084
312  1  10.7281  -1.28737  2.60084
313  1  -10.7281  -0.429125  2.60084
314  1  -9.86987  -0.429125  2.60084
315  1  -9.01162  -0.429125  2.60084
316  1  -8.15337  -0.429125  2.60084
317  1  -7.29512  -0.429125  2.60084
318  1  -6.43687  -0.429125  2.60084
319  1  -5.57862  -0.429125  2.60084
320  1  -4.72037  -0.429125  2.60084
321  1  -3.86212  -0.429125  2.60084
322  1  -3.00387  -0.429125  2.60084
323  1  -2.14562  -0.429125  2.60084
324  1  -1.28737  -0.429125  2.60084
325  1  -0.429125  -0.429125  2.60084
326  1  0.429125  -0.429125  2.60084
327  1  1.28737  -0.429125  2.60084
328  1  2.14562  -0.429125  2.60084
329  1  3.00387  -0.429125  2.60084
330  1  3.86212  -0.429125  2.60084
331  1  4.72037  -0.429125  2.60084
332  1  5.57862  -0.429125  2.60084
333  1  6.43687  -0.429125  2.60084
334  1  7.29512  -0.429125  2.60084
335  1  8.15337  -0.429125  2.60084
336  1  9.01162  -0.429125  2.60084
337  1  9.86987  -0.429125  2.60084
338  1  10.7281  -0.429125  2.60084
339  1  -10.7281  0.429125  2.60084
340  1  -9.86987  0.429125  2.60084
341  1  -9.01162  0.429125  2.60084
342  1  -8.15337  0.429125  2.60084
343  1  -7.29512  0.429125  2.60084
344  1  -6.43687  0.429125  2.60084
345  1  -5.57862  0.429125  2.60084
346  1  -4.72037  0.429125  2.60084
347  1  -3.86212  0.429125  2.60084
348  1  -3.00387  0.429125  2.60084
349  1  -2.14562  0.429125  2.60084
350  1  -1.28737  0.429125  2.60084
351  1  -0.429125  0.429125  2.60084
352  1  0.429125  0.429125  2.60084
353  1  1.28737  0.429125  2.60084
354  1  2.14562  0.429125  2.60084
355  1  3.00387  0.429125  2.60084
356  1  3.86212  0.429125  2.60084
357  1  4.72037  0.429125  2.60084
358  1  5.57862  0.429125  2.60084
359  1  6.43687  0.429125  2.60084
360  1  7.29512  0.429125  2.60084
361  1  8.15337  0.429125  2.60084
362  1  9.01162  0.429125  2.60084
363  1  9.86987  0.429125  2.60084
364  1  10.7281  0.429125  2.60084
365  1  -10.7281  1.28737  2.60084
366  1  -9.86987  1.28737  2.60084
367  1  -9.01162  1.28737  2.60084
368  1  -8.15337  1.28737  2.60084
369  1  -7.29512  1.28737  2.60084
370  1  -6.43687  1.28737  2.60084
371  1  -5.57862  1.28737  2.60084
372  1  -4.72037  1.28737  2.60084
373  1  -3.86212  1.28737  2.60084
374  1  -3.00387  1.28737  2.60084
375  1  -2.14562  1.28737  2.60084
376  1  -1.28737  1.28737  2.60084
377  1  -0.429125  1.28737  2.60084
378  1  0.429125  1.28737  2.60084
379  1  1.28737  1.28737  2.60084
380  1  2.14562  1.28737  2.60084
381  1  3.00387  1.28737  2.60084
382  1  3.86212  1.28737  2.60084
383  1  4.72037  1.28737  2.60084
384  1  5.57862  1.28737  2.60084
385  1  6.43687  1.28737  2.60084
386  1  7.29512  1.28737  2.60084
387  1  8.15337  1.28737  2.60084
388  1  9.01162  1.28737  2.60084
389  1  9.86987  1.28737  2.60084
390  1  10.7281  1.28737  2.60084
391  1  -10.7281  2.14562  2.60084
392  1  -9.86987  2.14562  2.60084
393  1  -9.01162  2.14562  2.60084
394  1  -8.15337  2.14562  2.60084
395  1  -7.29512  2.14562  2.60084
396  1  -6.43687  2.14562  2.60084
397  1  -5.57862  2.14562  2.60084
398  1  -4.72037  2.14562  2.60084
399  1  -3.86212  2.14562  2.60084
400  1  -3.00387  2.14562  2.60084
401  1  -2.14562  2.14562  2.60084
402  1  -1.28737  2.14562  2.60084
403  1  -0.429125  2.14562  2.60084
404  1  0.429125  2.14562  2.60084
405  1  1.28737  2.14562  2.60084
406  1  2.14562  2.14562  2.60084
407  1  3.00387  2.14562  2.60084
408  1  3.86212  2.14562  2.60084
409  1  4.72037  2.14562  2.60084
410  1  5.57862  2.14562  2.60084
411  1  6.43687  2.14562  2.60084
412  1  7.29512  2.14562  2.60084
413  1  8.15337  2.14562  2.60084
414  1  9.01162  2.14562  2.60084
415  1  9.86987  2.14562  2.60084
416  1  10.7281  2.14562  2.60084
417  1  -10.7281  3.00387  2.60084
418  1  -9.86987  3.00387  2.60084
419  1  -9.01162  3.00387  2.60084
420  1  -8.15337  3.00387  2.60084
421  1  -7.29512  3.00387  2.60084
422  1  -6.43687  3.00387  2.60084
423  1  -5.57862  3.00387  2.60084
424  1  -4.72037  3.00387  2.60084
425  1  -3.86212  3.00387  2.60084
426  1  -3.00387  3.00387  2.60084
427  1  -2.14562  3.00387  2.60084
428  1  -1.28737  3.00387  2.60084
429  1  -0.429125  3.00387  2.60084
430  1  0.429125  3.00387  2.60084
431  1  1.28737  3.00387  2.60084
432  1  2.14562  3.00387  2.60084
433  1  3.00387  3.00387  2.60084
434  1  3.86212  3.00387  2.60084
435  1  4.72037  3.00387  2.60084
436  1  5.57862  3.00387  2.60084
437  1  6.43687  3.00387  2.60084
438  1  7.29512  3.00387  2.60084
439  1  8.15337  3.00387  2.60084
440  1  9.01162  3.00387  2.60084
441  1  9.86987  3.00387  2.60084
442  1  10.7281  3.00387  2.60084
443  1  -10.7281  3.86212  2.60084
444  1  -9.86987  3.86212  2.60084
445  1  -9.01162  3.86212  2.60084
446  1  -8.15337  3.86212  2.60084
447  1  -7.29512  3.86212  2.60084
448  1  -6.43687  3.86212  2.60084
449  1  -5.57862  3.86212  2.60084
450  1  -4.72037  3.86212  2.60084
451  1  -3.86212  3.86212  2.60084
452  1  -3.00387  3.86212  2.60084
453  1  -2.14562  3.86212  2.60084
454  1  -1.28737  3.86212  2.60084
455  1  -0.429125  3.86212  2.60084
456  1  0.429125  3.86212  2.60084
457  1  1.28737  3.86212  2.60084
458  1  2.14562  3.86212  2.60084
459  1  3.00387  3.86212  2.60084
460  1  3.86212  3.86212  2.60084
461  1  4.72037  3.86212  2.60084
462  1  5.57862  3.86212  2.60084
463  1  6.43687  3.86212  2.60084
464  1  7.29512  3.86212  2.60084
465  1  8.15337  3.86212  2.60084
466  1  9.01162  3.86212  2.60084
467  1  9.86987  3.86212  2.60084
468  1  10.7281  3.86212  2.60084
469  1  -10.7281  4.72037  2.60084
470  1  -9.86987  4.72037  2.60084
471  1  -9.01162  4.72037  2.60084
472  1  -8.15337  4.72037  2.60084
473  1  -7.29512  4.72037  2.60084
474  1  -6.43687  4.72037  2.60084
475  1  -5.57862  4.72037  2.60084
476  1  -4.72037  4.72037  2.60084
477  1  -3.86212  4.72037  2.60084
478  1  -3.00387  4.72037  2.60084
479  1  -2.14562  4.72037  2.60084
480  1  -1.28737  4.72037  2.60084
481  1  -0.429125  4.72037  2.60084
482  1  0.429125  4.72037  2.60084
483  1  1.28737  4.72037  2.60084
484  1  2.14562  4.72037  2.60084
485  1  3.00387  4.72037  2.60084
486  1  3.86212  4.72037  2.60084
487  1  4.72037  4.72037  2.60084
488  1  5.57862  4.72037  2.60084
489  1  6.43687  4.72037  2.60084
490  1  7.29512  4.72037  2.60084
491  1  8.15337  4.72037  2.60084
492  1  9.01162  4.72037  2.60084
493  1  9.86987  4.72037  2.60084
494  1  10.7281  4.72037  2.60084
495  1  -10.7281  5.57862  2.60084
496  1  -9.86987  5.57862  2.60084
497  1  -9.01162  5.57862  2.60084
498  1  -8.15337  5.57862  2.60084
499  1  -7.29512  5.57862  2.60084
500  1  -6.43687  5.57862  2.60084
501  1  -5.57862  5.57862  2.60084
502  1  -4.72037  5.57862  2.60084
503  1  -3.86212  5.57862  2.60084
504  1  -3.00387  5.57862  2.60084
505  1  -2.14562  5.57862  2.60084
506  1  -1.28737  5.57862  2.60084
507  1  -0.429125  5.57862  2.60084
508  1  0.429125  5.57862  2.60084
509  1  1.28737  5.57862  2.60084
510  1  2.14562  5.57862  2.60084
511  1  3.00387  5.57862  2.60084
512  1  3.86212  5.57862  2.60084
513  1  4.72037  5.57862  2.60084
514  1  5.57862  5.57862  2.60084
515  1  6.43687  5.57862  2.60084
516  1  7.29512  5.57862  2.60084
517  1  8.15337  5.57862  2.60084
518  1  9.01162  5.57862  2.60084
519  1  9.86987  5.57862  2.60084
520  1  10.7281  5.57862  2.60084
521  1  -10.7281  6.43687  2.60084
522  1  -9.86987  6.43687  2.60084
523  1  -9.01162  6.43687  2.60084
524  1  -8.15337  6.43687  2.60084
525  1  -7.29512  6.43687  2.60084
526  1  -6.43687  6.43687  2.60084
527  1  -5.57862  6.43687  2.60084
528  1  -4.72037  6.43687  2.60084
529  1  -3.86212  6.43687  2.60084
530  1  -3.00387  6.43687  2.60084
531  1  -2.14562  6.43687  2.60084
532  1  -1.28737  6.43687  2.60084
533  1  -0.429125  6.43687  2.60084
534  1  0.429125  6.43687  2.60084
535  1  1.28737  6.43687  2.60084
536  1  2.14562  6.43687  2.60084
537  1  3.00387  6.43687  2.60084
538  1  3.86212  6.43687  2.60084
539  1  4.72037  6.43687  2.60084
540  1  5.57862  6.43687  2.60084
541  1  6.43687  6.43687  2.60084
542  1  7.29512  6.43687  2.60084
543  1  8.15337  6.43687  2.60084
544  1  9.01162  6.43687  2.60084
545  1  9.86987  6.43687  2.60084
546  1  10.7281  6.43687  2.60084
547  1  -10.7281  7.29512  2.60084
548  1  -9.86987  7.29512  2.60084
549  1  -9.01162  7.29512  2.60084
550  1  -8.15337  7.29512  2.60084
551  1  -7.29512  7.29512  2.60084
552  1  -6.43687  7.29512  2.60084
553  1  -5.57862  7.29512  2.60084
554  1  -4.72037  7.29512  2.60084
555  1  -3.86212  7.29512  2.60084
556  1  -3.00387  7.29512  2.60084
557  1  -2.14562  7.29512  2.60084
558  1  -1.28737  7.29512  2.60084
559  1  -0.429125  7.29512  2.60084
560  1  0.429125  7.29512  2.60084
561  1  1.28737  7.29512  2.60084
562  1  2.14562  7.29512  2.60084
563  1  3.00387  7.29512  2.60084
564  1  3.86212  7.29512  2.60084
565  1  4.72037  7.29512  2.60084
566  1  5.57862  7.29512  2.60084
567  1  6.43687  7.29512  2.60084
568  1  7.29512  7.29512  2.60084
569  1  8.15337  7.29512  2.60084
570  1  9.01162  7.29512  2.60084
571  1  9.86987  7.29512  2.60084
572  1  10.7281  7.29512  2.60084
573  1  -10.7281  8.15337  2.60084
574  1  -9.86987  8.15337  2.60084
575  1  -9.01162  8.15337  2.60084
576  1  -8.15337  8.15337  2.60084
577  1  -7.29512  8.15337  2.60084
578  1  -6.43687  8.15337  2.60084
579  1  -5.57862  8.15337  2.60084
580  1  -4.72037  8.15337  2.60084
581  1  -3.86212  8.15337  2.60084
582  1  -3.00387  8.15337  2.60084
583  1  -2.14562  8.15337  2.60084
584  1  -1.28737  8.15337  2.60084
585  1  -0.429125  8.15337  2.60084
586  1  0.429125  8.15337  2.60084
587  1  1.28737  8.15337  2.60084
588  1  2.14562  8.15337  2.60084
589  1  3.00387  8.15337  2.60084
590  1  3.86212  8.15337  2.60084
591  1  4.72037  8.15337  2.60084
592  1  5.57862  8.15337  2.60084
593  1  6.43687  8.15337  2.60084
594  1  7.29512  8.15337  2.60084
595  1  8.15337  8.15337  2.60084
596  1  9.01162  8.15337  2.60084
597  1  9.86987  8.15337  2.60084
598  1  10.7281  8.15337  2.60084
599  1  -10.7281  9.01162  2.60084
600  1  -9.86987  9.01162  2.60084
601  1  -9.01162  9.01162  2.60084
602  1  -8.15337  9.01162  2.60084
603  1  -7.29512  9.01162  2.60084
604  1  -6.43687  9.01162  2.60084
605  1  -5.57862  9.01162  2.60084
606  1  -4.72037  9.01162  2.60084
607  1  -3.86212  9.01162  2.60084
608  1  -3.00387  9.01162  2.60084
609  1  -2.14562  9.01162  2.60084
610  1  -1.28737  9.01162  2.60084
611  1  -0.429125  9.01162  2.60084
612  1  0.429125  9.01162  2.60084
613  1  1.28737  9.01162  2.60084
614  1  2.14562  9.01162  2.60084
615  1  3.00387  9.01162  2.60084
616  1  3.86212  9.01162  2.60084
617  1  4.72037  9.01162  2.60084
618  1  5.57862  9.01162  2.60084
619  1  6.43687  9.01162  2.60084
620  1  7.29512  9.01162  2.60084
621  1  8.15337  9.01162  2.60084
622  1  9.01162  9.01162  2.60084
623  1  9.86987  9.01162  2.60084
624  1  10.7281  9.01162  2.60084
625  1  -10.7281  9.86987  2.60084
626  1  -9.86987  9.86987  2.60084
627  1  -9.01162  9.86987  2.60084
628  1  -8.15337  9.86987  2.60084
629  1  -7.29512  9.86987  2.60084
630  1  -6.43687  9.86987  2.60084
631  1  -5.57862  9.86987  2.60084
632  1  -4.72037  9.86987  2.60084
633  1  -3.86212  9.86987  2.60084
634  1  -3.00387  9.86987  2.60084
635  1  -2.14562  9.86987  2.60084
636  1  -1.28737  9.86987  2.60084
637  1  -0.429125  9.86987  2.60084
638  1  0.429125  9.86987  2.60084
639  1  1.28737  9.86987  2.60084
640  1  2.14562  9.86987  2.60084
641  1  3.00387  9.86987  2.60084
642  1  3.86212  9.86987  2.60084
643  1  4.72037  9.86987  2.60084
644  1  5.57862  9.86987  2.60084
645  1  6.43687  9.86987  2.60084
646  1  7.29512  9.86987  2.60084
647  1  8.15337  9.86987  2.60084
648  1  9.01162  9.86987  2.60084
649  1  9.86987  9.86987  2.60084
650  1  10.7281  9.86987  2.60084
651  1  -10.7281  10.7281  2.60084
652  1  -9.86987  10.7281  2.60084
653  1  -9.01162  10.7281  2.60084
654  1  -8.15337  10.7281  2.60084
655  1  -7.29512  10.7281  2.60084
656  1  -6.43687  10.7281  2.60084
657  1  -5.57862  10.7281  2.60084
658  1  -4.72037  10.7281  2.60084
659  1  -3.86212  10.7281  2.60084
660  1  -3.00387  10.7281  2.60084
661  1  -2.14562  10.7281  2.60084
662  1  -1.28737  10.7281  2.60084
663  1  -0.429125  10.7281  2.60084
664  1  0.429125  10.7281  2.60084
665  1  1.28737  10.7281  2.60084
666  1  2.14562  10.7281  2.60084
667  1  3.00387  10.7281  2.60084
668  1  3.86212  10.7281  2.60084
669  1  4.72037  10.7281  2.60084
670  1  5.57862  10.7281  2.60084
671  1  6.43687  10.7281  2.60084
672  1  7.29512  10.7281  2.60084
673  1  8.15337  10.7281  2.60084
674  1  9.01162  10.7281  2.60084
675  1  9.86987  10.7281  2.60084
676  1  10.7281  10.7281  2.60084
