ITEM: TIMESTEP
1000
ITEM: NUMBER OF ATOMS
452
ITEM: BOX BOUNDS pp pp ff
-1.6160100000000000e+01 1.6160100000000000e+01
-1.6160100000000000e+01 1.6160100000000000e+01
-3.1646600000000000e+00 3.1646600000000000e+00
ITEM: ATOMS id type q x y z 
259 2 -10.8766 -13.066 -13.1963 -0.311979 
265 2 -10.8766 -14.3999 -13.1466 0.793225 
308 2 -10.8766 -11.6943 -11.5796 -0.361838 
232 1 10.8766 -10.9099 -12.4672 0.998004 
63 1 10.8766 -9.19583 -16.0495 0.575171 
324 2 -10.8766 -9.9116 -13.1322 1.49351 
406 2 -10.8766 -11.1436 -14.1047 -0.432971 
74 1 10.8766 -5.72668 -14.116 -0.206933 
141 1 10.8766 -2.86385 -12.9233 0.614984 
188 1 10.8766 -4.11602 -13.2922 -0.834356 
424 2 -10.8766 -5.39907 -13.467 1.49784 
436 2 -10.8766 -6.89461 -12.05 -1.06919 
439 2 -10.8766 -2.87065 -13.1284 -1.7771 
451 2 -10.8766 -3.3629 -14.1221 0.385906 
213 1 10.8766 -2.45268 -11.8646 0.0328126 
221 1 10.8766 -2.62115 -11.9522 -1.03567 
20 1 10.8766 -0.646285 -13.2531 -1.85203 
70 1 10.8766 0.742512 -15.2706 -1.46403 
80 1 10.8766 -0.257633 -15.2006 1.58242 
228 1 10.8766 0.627789 -11.5709 -2.54588 
231 1 10.8766 0.118607 -12.5667 -0.84765 
291 2 -10.8766 1.14743 -13.2873 -1.34025 
316 2 -10.8766 1.22001 -15.0011 0.169761 
321 2 -10.8766 0.368067 -13.2787 0.325177 
343 2 -10.8766 -1.41051 -14.2245 -1.98417 
327 2 -10.8766 -0.706993 -11.6335 -2.3091 
66 1 10.8766 1.4443 -12.017 0.750427 
30 1 10.8766 5.97107 -13.7689 -2.37483 
38 1 10.8766 2.88269 -14.3482 -0.287462 
72 1 10.8766 4.66747 -15.9395 -2.18441 
103 1 10.8766 6.65256 -15.0023 -0.238587 
119 1 10.8766 5.1287 -14.8291 1.13426 
182 1 10.8766 5.3857 -13.0454 0.755612 
248 2 -10.8766 2.57011 -14.6578 -1.52598 
445 2 -10.8766 4.4762 -12.1726 -1.45875 
348 2 -10.8766 6.20889 -15.0113 -1.81224 
67 1 10.8766 2.86209 -11.8504 -0.168071 
10 1 10.8766 7.32608 -13.9798 1.58868 
45 1 10.8766 11.2312 -15.1571 -0.793624 
76 1 10.8766 7.92457 -13.6206 -2.37291 
125 1 10.8766 8.04323 -14.9044 1.66661 
297 2 -10.8766 10.7608 -15.2634 0.997043 
299 2 -10.8766 8.25882 -14.8336 0.0741305 
320 2 -10.8766 8.07362 -11.7661 -0.977196 
353 2 -10.8766 10.2509 -13.2935 2.00346 
438 2 -10.8766 7.61095 -15.9211 -1.25444 
281 2 -10.8766 7.35993 -12.7696 1.26671 
178 1 10.8766 10.6812 -12.0481 -2.52479 
418 2 -10.8766 8.83907 -11.805 0.815843 
120 1 10.8766 11.6323 -13.5495 -0.626343 
151 1 10.8766 14.6282 -11.5832 -1.23699 
240 1 10.8766 12.6907 -12.6434 0.195367 
251 2 -10.8766 12.8378 -13.4518 -1.37585 
340 2 -10.8766 12.78 -13.8723 0.0466791 
219 1 10.8766 12.2647 -11.706 -0.972345 
183 1 10.8766 -15.1482 -11.5303 0.814364 
11 1 10.8766 -12.0569 -10.7766 0.523502 
112 1 10.8766 -13.455 -9.2811 0.102039 
115 1 10.8766 -14.7435 -9.15162 1.35944 
205 1 10.8766 -14.7187 -10.7762 2.01778 
210 1 10.8766 -12.1049 -10.2226 -1.89973 
253 2 -10.8766 -14.3554 -10.9384 -1.85149 
313 2 -10.8766 -14.1718 -10.1392 0.771877 
317 2 -10.8766 -15.5683 -9.60753 -0.770503 
374 2 -10.8766 -11.9703 -9.32832 -0.85185 
26 1 10.8766 -15.3883 -7.4598 -1.71269 
50 1 10.8766 -13.2618 -7.74888 -2.56133 
235 1 10.8766 -12.8974 -8.35004 -1.09033 
225 1 10.8766 -9.68531 -11.5336 0.264295 
331 2 -10.8766 -7.98823 -10.5163 -1.54857 
414 2 -10.8766 -11.3753 -9.50346 0.733487 
5 1 10.8766 -8.77179 -9.55495 -2.05839 
37 1 10.8766 -8.66151 -10.2096 0.236031 
54 1 10.8766 -10.5954 -7.61071 -2.55819 
131 1 10.8766 -8.10848 -9.60758 -0.754825 
247 2 -10.8766 -9.8717 -9.52764 1.1501 
432 2 -10.8766 -11.371 -8.76565 -2.05321 
32 1 10.8766 -7.23507 -8.48106 -2.42188 
12 1 10.8766 -8.92965 -7.62837 -1.67188 
187 1 10.8766 -9.16306 -7.781 -0.253382 
8 1 10.8766 -6.36271 -10.8186 -0.663063 
238 1 10.8766 -6.19566 -8.66101 -0.0952812 
284 2 -10.8766 -6.67048 -10.801 1.32415 
403 2 -10.8766 -6.41077 -9.62588 -1.421 
431 2 -10.8766 -6.56512 -7.1608 -2.22888 
18 1 10.8766 -5.21643 -9.40253 1.01976 
42 1 10.8766 -4.54234 -7.73339 -0.161862 
102 1 10.8766 -2.86017 -7.12277 -2.1047 
179 1 10.8766 -4.05696 -8.68592 0.415521 
211 1 10.8766 -4.86385 -7.59242 -2.27807 
366 2 -10.8766 -4.62299 -9.8175 -0.922966 
420 2 -10.8766 -5.00636 -10.7224 1.22144 
452 2 -10.8766 -6.80344 -9.69544 -0.0156497 
408 2 -10.8766 -3.9399 -7.52509 -1.33222 
130 1 10.8766 -2.15864 -10.7226 0.0371031 
15 1 10.8766 -0.765432 -10.0538 0.669129 
190 1 10.8766 -2.06951 -8.55894 -0.177794 
227 1 10.8766 0.05235 -8.35082 -0.419139 
271 2 -10.8766 0.891553 -7.30063 2.27389 
298 2 -10.8766 -0.53539 -11.0583 -0.103171 
315 2 -10.8766 2.07432 -9.54858 -2.33045 
351 2 -10.8766 0.0646811 -7.02383 -0.424936 
367 2 -10.8766 1.29729 -9.3479 1.3045 
347 2 -10.8766 -1.47493 -7.21335 -0.240507 
168 1 10.8766 3.01425 -9.12874 1.35541 
148 1 10.8766 5.72855 -8.78195 -1.04963 
170 1 10.8766 3.54514 -9.66273 -0.48245 
174 1 10.8766 3.70702 -9.47551 -2.50135 
368 2 -10.8766 3.70589 -8.19087 -1.49894 
393 2 -10.8766 2.4702 -10.1018 -0.103833 
280 2 -10.8766 10.4852 -10.7883 -1.39215 
16 1 10.8766 6.98484 -11.2141 -0.92915 
263 2 -10.8766 7.13192 -9.699 -1.27798 
52 1 10.8766 10.3458 -9.11152 -1.26684 
137 1 10.8766 10.6147 -8.26069 -1.91745 
155 1 10.8766 9.5486 -8.34595 -1.30764 
410 2 -10.8766 8.03772 -10.4421 0.502954 
442 2 -10.8766 8.60477 -7.61424 -0.89889 
156 1 10.8766 11.1098 -9.85845 0.0935682 
341 2 -10.8766 10.938 -7.74854 0.70027 
193 1 10.8766 8.21852 -7.29162 1.28199 
165 1 10.8766 9.77608 -6.98532 -1.63576 
380 2 -10.8766 15.9404 -7.94659 -1.37107 
35 1 10.8766 13.2781 -9.72719 0.944992 
87 1 10.8766 13.9914 -9.2925 -2.51758 
126 1 10.8766 13.2645 -7.56135 -0.791068 
196 1 10.8766 12.2247 -9.31488 -1.34006 
325 2 -10.8766 14.2529 -10.4969 -2.37732 
95 1 10.8766 -14.416 -6.13936 2.6702 
290 2 -10.8766 -13.0828 -6.685 1.19478 
17 1 10.8766 -15.895 -5.30945 1.17342 
122 1 10.8766 -14.4332 -4.44837 -1.34725 
134 1 10.8766 -12.2816 -6.79679 -0.241442 
175 1 10.8766 -15.9759 -2.44499 -0.334111 
262 2 -10.8766 -11.6522 -3.72374 0.800407 
397 2 -10.8766 -15.0645 -3.52257 0.0658919 
401 2 -10.8766 -13.3917 -2.51063 0.716752 
75 1 10.8766 -11.6144 -2.52016 -1.01508 
391 2 -10.8766 -15.0151 -3.31895 2.08228 
135 1 10.8766 -12.392 -2.56144 2.51376 
113 1 10.8766 -10.9489 -4.99297 1.71178 
27 1 10.8766 -6.92854 -4.44414 1.24188 
40 1 10.8766 -7.03963 -2.48605 -0.115723 
136 1 10.8766 -8.80157 -4.71093 0.376537 
194 1 10.8766 -8.08108 -5.18293 -0.537947 
292 2 -10.8766 -10.5136 -2.74633 0.107212 
358 2 -10.8766 -11.2826 -3.50839 -1.57839 
362 2 -10.8766 -9.27391 -5.99971 -1.36293 
429 2 -10.8766 -7.50601 -6.57621 -0.324086 
447 2 -10.8766 -7.94255 -3.17109 -2.09485 
444 2 -10.8766 -8.30973 -5.13284 1.54048 
192 1 10.8766 -10.1515 -3.68295 -1.35305 
203 1 10.8766 -6.49697 -4.2873 -2.26369 
48 1 10.8766 -4.79299 -4.57119 -0.392673 
111 1 10.8766 -6.60151 -5.3835 -1.28067 
275 2 -10.8766 -4.97986 -2.94237 -2.47273 
323 2 -10.8766 -3.2667 -4.95765 0.766639 
371 2 -10.8766 -6.21123 -4.42076 -0.440179 
372 2 -10.8766 -3.14466 -3.67666 -2.05267 
409 2 -10.8766 -5.27158 -5.14153 -1.99454 
312 2 -10.8766 2.05229 -6.46582 -0.513566 
449 2 -10.8766 1.71841 -6.08501 -2.1742 
44 1 10.8766 -1.44501 -5.47502 -2.0945 
49 1 10.8766 1.65935 -2.76722 -1.90128 
144 1 10.8766 0.0029813 -6.67062 0.986144 
167 1 10.8766 -1.45703 -2.89277 -1.32733 
173 1 10.8766 -0.47684 -3.6967 -1.63882 
260 2 -10.8766 0.869266 -4.25682 -1.04415 
142 1 10.8766 5.69477 -4.77452 0.738092 
159 1 10.8766 6.7384 -2.7033 -0.00469086 
209 1 10.8766 3.56283 -5.76842 1.95815 
250 2 -10.8766 3.48581 -4.62717 -2.4257 
268 2 -10.8766 3.14613 -4.21075 1.27588 
295 2 -10.8766 5.16919 -3.19634 0.188811 
360 2 -10.8766 4.07739 -5.36155 0.270634 
395 2 -10.8766 5.44535 -3.30311 -1.46597 
127 1 10.8766 6.82223 -4.98759 -0.674879 
176 1 10.8766 8.25899 -3.74448 -2.54908 
300 2 -10.8766 7.60598 -5.85366 0.556521 
39 1 10.8766 11.2083 -5.55035 1.04528 
242 2 -10.8766 10.8388 -6.52193 -1.77394 
305 2 -10.8766 7.63822 -3.57566 -0.499229 
370 2 -10.8766 8.52379 -6.27272 -1.37234 
387 2 -10.8766 8.53709 -3.29535 2.31171 
412 2 -10.8766 9.26046 -4.38645 -1.49263 
65 1 10.8766 6.99955 -3.34393 -1.89609 
306 2 -10.8766 7.71906 -2.33178 -0.977774 
1 1 10.8766 14.9298 -6.78377 -0.792325 
398 2 -10.8766 12.0393 -4.1701 -0.516035 
207 1 10.8766 14.2722 -3.18678 0.279124 
334 2 -10.8766 12.6794 -2.6518 -1.39939 
359 2 -10.8766 14.8434 -4.272 -1.44052 
361 2 -10.8766 15.6303 -6.12209 0.637078 
307 2 -10.8766 14.7585 -2.54768 -2.25541 
21 1 10.8766 -13.9707 -0.591054 -0.40999 
108 1 10.8766 -14.2587 -0.201926 -1.40585 
133 1 10.8766 -14.047 0.927898 -1.33109 
161 1 10.8766 -13.0789 0.674158 1.53608 
172 1 10.8766 -12.5319 1.44738 -2.47129 
427 2 -10.8766 -11.9632 0.448025 0.0926832 
428 2 -10.8766 -14.8533 0.295628 0.292106 
34 1 10.8766 -12.1616 -1.56118 -1.498 
24 1 10.8766 -12.7546 1.91964 -0.461146 
177 1 10.8766 -11.8687 1.6332 2.30939 
4 1 10.8766 -10.8216 -1.16198 0.300098 
13 1 10.8766 -10.8527 1.68282 -2.61071 
121 1 10.8766 -7.3562 0.0664478 -1.65264 
186 1 10.8766 -7.15398 -1.8268 1.70694 
204 1 10.8766 -7.84833 1.38629 0.0248188 
212 1 10.8766 -10.1265 0.749433 0.526994 
220 1 10.8766 -9.40427 1.07191 -2.03119 
322 2 -10.8766 -9.82027 0.941725 2.37694 
373 2 -10.8766 -9.15964 -0.118393 0.240399 
356 2 -10.8766 -7.6323 -1.26052 -1.49783 
261 2 -10.8766 -8.99598 2.20342 -0.289361 
349 2 -10.8766 -5.55117 -1.1638 -0.779915 
129 1 10.8766 -6.91988 0.192997 1.53684 
139 1 10.8766 -6.82272 1.52406 -1.0094 
287 2 -10.8766 -6.15695 1.36113 1.33751 
443 2 -10.8766 -6.04956 0.0273814 -2.2604 
51 1 10.8766 -4.42233 -1.0737 -1.22821 
109 1 10.8766 -4.93359 0.902713 -0.788333 
143 1 10.8766 -4.62434 2.06934 -2.53652 
215 1 10.8766 -5.65603 -0.0648809 -0.131479 
234 1 10.8766 -4.38119 -2.25609 0.432381 
335 2 -10.8766 -4.76124 -1.0442 0.694825 
400 2 -10.8766 -3.49669 1.30495 0.0370758 
146 1 10.8766 -5.86091 1.59777 -1.68914 
69 1 10.8766 -4.80061 2.12873 2.31944 
344 2 -10.8766 1.18172 -1.67414 -1.13865 
243 2 -10.8766 -1.9397 0.296655 -2.21074 
337 2 -10.8766 -2.1588 0.970449 -0.464926 
7 1 10.8766 -0.551568 1.11124 -1.35732 
47 1 10.8766 1.90858 -0.756807 0.548505 
86 1 10.8766 -0.220804 -1.75939 -0.729492 
118 1 10.8766 1.02338 0.0693261 -1.09902 
145 1 10.8766 -1.08211 1.03125 0.378086 
382 2 -10.8766 -0.527292 -0.29052 -1.78105 
419 2 -10.8766 1.98661 0.940722 0.532844 
71 1 10.8766 2.11663 1.63985 -1.50633 
105 1 10.8766 2.23622 0.374131 2.62677 
56 1 10.8766 4.85235 -0.699591 -2.14431 
60 1 10.8766 4.90128 2.1999 0.150907 
61 1 10.8766 6.70929 -1.1954 2.15604 
101 1 10.8766 3.07936 -0.245393 0.546578 
124 1 10.8766 4.20484 0.467273 -1.5756 
149 1 10.8766 4.65693 -0.631471 -0.549297 
185 1 10.8766 5.18488 0.612759 -0.790757 
294 2 -10.8766 2.71523 -0.933963 -1.86002 
301 2 -10.8766 5.63619 1.41151 1.83902 
339 2 -10.8766 6.26061 0.199429 -1.37686 
355 2 -10.8766 3.32835 0.819876 -2.33693 
399 2 -10.8766 5.17008 1.00655 -2.47934 
407 2 -10.8766 5.4774 -0.339947 0.380263 
64 1 10.8766 6.38124 -1.83187 -1.43119 
206 1 10.8766 6.76501 1.15631 1.979 
333 2 -10.8766 6.09514 1.53296 0.123627 
385 2 -10.8766 10.5426 -1.91854 -2.05173 
106 1 10.8766 9.39772 0.0788572 -0.360396 
181 1 10.8766 6.96331 0.640729 -2.58243 
208 1 10.8766 10.2208 -0.231503 -2.05226 
384 2 -10.8766 7.70719 0.0688052 -1.14961 
381 2 -10.8766 11.2724 -0.512605 -1.02932 
171 1 10.8766 7.65667 1.41747 -0.195256 
426 2 -10.8766 9.19358 1.49001 0.234669 
288 2 -10.8766 12.8317 -2.12046 0.549469 
107 1 10.8766 11.8174 -1.40525 -0.115907 
180 1 10.8766 13.0895 -1.20195 -2.26622 
402 2 -10.8766 11.9187 1.07083 2.32499 
83 1 10.8766 11.9152 1.8973 0.288992 
93 1 10.8766 13.3905 0.535835 1.44959 
110 1 10.8766 13.5816 0.0739429 0.144731 
195 1 10.8766 13.3415 -1.53588 -1.02883 
304 2 -10.8766 14.2551 2.04775 -0.631436 
329 2 -10.8766 12.6333 0.944099 -1.89717 
421 2 -10.8766 12.8703 -0.989164 1.4804 
46 1 10.8766 -14.4572 3.65101 1.589 
62 1 10.8766 -14.8789 4.88346 -0.531556 
150 1 10.8766 -13.3142 5.91637 0.896738 
157 1 10.8766 -13.4945 3.24441 -2.49226 
200 1 10.8766 -13.412 6.24181 -1.40184 
201 1 10.8766 -11.7227 5.42055 -2.65134 
255 2 -10.8766 -13.0535 4.84121 -0.974029 
289 2 -10.8766 -15.7984 5.25209 0.336956 
404 2 -10.8766 -14.3933 5.09558 -1.76886 
357 2 -10.8766 -11.9616 4.00341 0.398097 
132 1 10.8766 -11.9928 6.73608 -1.9345 
345 2 -10.8766 -11.8838 5.62368 -0.973728 
36 1 10.8766 -6.94262 5.05869 -0.810125 
57 1 10.8766 -10.3824 6.47021 1.93092 
68 1 10.8766 -10.9518 4.32087 -2.04415 
160 1 10.8766 -9.79661 4.84705 -0.984405 
350 2 -10.8766 -9.83759 5.37436 -2.13624 
377 2 -10.8766 -9.9616 3.07434 0.807964 
254 2 -10.8766 -4.47095 2.54853 -0.968484 
383 2 -10.8766 -6.28935 3.40606 -1.21506 
278 2 -10.8766 -6.45072 5.95658 0.279467 
282 2 -10.8766 -6.83133 5.94667 1.89033 
23 1 10.8766 -3.07732 2.77926 -0.920068 
84 1 10.8766 -5.06683 4.6178 -1.91888 
99 1 10.8766 -5.79353 3.94774 -2.60986 
199 1 10.8766 -4.27834 5.37119 1.16759 
216 1 10.8766 -5.38398 3.54625 -0.260338 
264 2 -10.8766 -4.05147 4.18329 -0.299297 
272 2 -10.8766 -3.17574 3.48107 1.0314 
296 2 -10.8766 -3.75337 3.87818 -2.39936 
352 2 -10.8766 -3.85725 6.09513 -2.02117 
392 2 -10.8766 -4.97608 6.48198 1.34336 
435 2 -10.8766 -5.62794 2.71038 1.17777 
88 1 10.8766 -2.49791 5.91797 0.928571 
158 1 10.8766 2.07651 2.5541 2.54101 
423 2 -10.8766 2.13188 2.86424 -0.0217437 
326 2 -10.8766 -1.65961 6.474 1.65745 
154 1 10.8766 -1.40684 4.10654 -0.910236 
166 1 10.8766 0.327697 6.06418 -0.600254 
252 2 -10.8766 0.400795 5.76843 1.00014 
394 2 -10.8766 -0.867835 2.38478 1.20796 
28 1 10.8766 2.22033 4.38372 -0.316326 
239 1 10.8766 1.56354 2.76088 -1.56291 
25 1 10.8766 -0.443779 6.55473 -2.41278 
378 2 -10.8766 -0.130543 6.11777 2.32308 
128 1 10.8766 6.34557 2.38284 -2.45529 
19 1 10.8766 5.38144 6.34233 0.71749 
33 1 10.8766 4.94302 6.71681 -1.43918 
96 1 10.8766 4.3477 4.87495 -2.04348 
114 1 10.8766 6.60032 4.19963 -0.79765 
153 1 10.8766 4.85659 5.01394 1.51704 
229 1 10.8766 6.0259 6.65718 -0.277066 
389 2 -10.8766 3.9929 5.37739 0.861532 
390 2 -10.8766 3.85509 2.74569 -2.05864 
446 2 -10.8766 3.72008 3.50436 0.12857 
91 1 10.8766 9.65586 2.47965 -1.5243 
328 2 -10.8766 11.4913 2.74362 -1.21646 
41 1 10.8766 9.40204 3.89903 -2.32017 
94 1 10.8766 8.3323 4.69056 -1.05843 
258 2 -10.8766 7.34 5.64203 -1.53106 
285 2 -10.8766 8.22387 3.35415 -1.74122 
302 2 -10.8766 10.6165 3.94868 -0.61342 
415 2 -10.8766 10.3429 5.10295 1.4214 
388 2 -10.8766 10.5995 6.60746 -0.171967 
233 1 10.8766 11.694 5.67658 2.25366 
237 1 10.8766 13.4774 6.51056 -2.11575 
319 2 -10.8766 12.5932 4.66957 -0.918803 
283 2 -10.8766 14.9607 5.69543 -0.768199 
79 1 10.8766 -14.2952 8.2231 -1.95223 
31 1 10.8766 -14.26 9.14648 -1.15294 
43 1 10.8766 -13.2789 7.64491 1.49862 
73 1 10.8766 -12.6999 7.2038 -0.0794404 
89 1 10.8766 -13.6205 11.3372 -2.21113 
202 1 10.8766 -15.9894 8.64661 -0.793394 
218 1 10.8766 -14.4358 9.35682 1.53616 
293 2 -10.8766 -13.3729 8.22956 0.389996 
363 2 -10.8766 -15.2386 7.71757 -1.23445 
417 2 -10.8766 -12.9918 7.88798 -1.92129 
169 1 10.8766 -12.1294 9.57481 -2.54392 
450 2 -10.8766 -13.8421 11.3891 0.544635 
152 1 10.8766 -7.12068 7.72237 1.68067 
162 1 10.8766 -7.75824 9.30186 -0.936932 
226 1 10.8766 -8.74352 7.9205 -0.38591 
256 2 -10.8766 -11.071 11.2903 -0.476624 
273 2 -10.8766 -11.2735 8.43916 1.51103 
279 2 -10.8766 -9.70846 10.7238 -2.50084 
309 2 -10.8766 -10.3187 9.21828 -1.70256 
318 2 -10.8766 -7.39506 9.74465 0.418084 
413 2 -10.8766 -8.5871 7.68797 -2.22718 
217 1 10.8766 -10.5823 11.2737 -1.52797 
3 1 10.8766 -6.37175 10.9237 1.4491 
22 1 10.8766 -2.73657 8.78866 0.785718 
55 1 10.8766 -2.93348 7.60374 -1.69941 
104 1 10.8766 -4.41965 8.11883 0.475291 
191 1 10.8766 -6.59746 7.65209 -1.5892 
245 2 -10.8766 -6.72908 10.2596 -1.16534 
314 2 -10.8766 -3.9987 8.92417 -1.96336 
354 2 -10.8766 -5.41638 9.18193 -2.03357 
433 2 -10.8766 -4.67825 11.4586 1.97333 
448 2 -10.8766 -3.10882 9.60754 -0.23794 
197 1 10.8766 -2.31366 9.59536 -2.21947 
338 2 -10.8766 -4.78127 11.3799 -1.50601 
29 1 10.8766 1.92429 7.1715 2.31815 
249 2 -10.8766 -2.2192 7.92597 -0.514911 
224 1 10.8766 -0.167765 10.0569 -0.896449 
267 2 -10.8766 1.41227 8.30172 0.431032 
342 2 -10.8766 0.150227 7.70039 -0.903185 
440 2 -10.8766 -1.37544 9.85394 2.30988 
277 2 -10.8766 1.73269 8.40996 2.40956 
164 1 10.8766 -1.45738 11.2636 1.44933 
332 2 -10.8766 1.25472 10.9254 -0.513401 
311 2 -10.8766 3.31548 7.16149 -1.68444 
82 1 10.8766 2.32863 7.08474 -2.43265 
9 1 10.8766 3.42683 8.55188 2.33307 
77 1 10.8766 3.50889 10.8491 -0.891696 
223 1 10.8766 2.76394 7.96556 1.16298 
230 1 10.8766 6.86858 10.3763 -0.815444 
336 2 -10.8766 3.70041 9.36909 -1.22018 
364 2 -10.8766 5.33246 7.89038 -0.76223 
416 2 -10.8766 5.50677 10.3778 -0.247285 
430 2 -10.8766 6.63783 11.1339 2.48977 
2 1 10.8766 6.81835 8.58982 -0.0674691 
184 1 10.8766 9.3016 7.29734 -0.11738 
81 1 10.8766 9.57217 9.06461 -0.330841 
116 1 10.8766 7.70521 9.89457 -1.47631 
270 2 -10.8766 8.80599 11.1416 0.308809 
303 2 -10.8766 9.41114 9.10793 -1.85104 
310 2 -10.8766 7.29739 8.28157 -2.3316 
379 2 -10.8766 8.08798 9.52159 -0.00539516 
386 2 -10.8766 9.16992 7.25239 -1.439 
422 2 -10.8766 10.4465 10.9814 -1.66119 
97 1 10.8766 11.3585 9.41123 -2.27148 
98 1 10.8766 11.5522 6.92964 1.19115 
78 1 10.8766 11.6797 10.2324 -1.09542 
100 1 10.8766 13.9525 11.3002 -0.212754 
274 2 -10.8766 13.8617 8.06368 -0.98205 
276 2 -10.8766 13.9977 9.37216 2.22837 
90 1 10.8766 -12.6163 12.14 -0.337783 
92 1 10.8766 -15.693 11.7705 -1.92732 
140 1 10.8766 -14.1989 14.4903 -1.7277 
189 1 10.8766 -13.2767 15.2064 1.10668 
244 2 -10.8766 -12.1812 13.4843 2.37704 
375 2 -10.8766 -15.0223 13.6254 -2.34784 
53 1 10.8766 -11.0238 14.0564 -0.966244 
85 1 10.8766 -9.721 11.6467 1.27484 
257 2 -10.8766 -8.64464 11.5481 -2.17052 
411 2 -10.8766 -9.32556 12.2519 -0.616122 
14 1 10.8766 -7.31197 11.9289 -0.45861 
286 2 -10.8766 -3.14348 15.2278 -2.24238 
425 2 -10.8766 -5.10281 15.9349 0.696323 
198 1 10.8766 -3.40805 15.8176 -0.209178 
222 1 10.8766 -6.76163 11.6989 -2.02849 
138 1 10.8766 -4.0078 11.5707 0.621371 
365 2 -10.8766 -2.92111 14.9984 1.98699 
437 2 -10.8766 -6.01621 12.5687 -2.36138 
147 1 10.8766 -2.02554 14.0539 1.80268 
369 2 -10.8766 -1.6032 14.277 -1.16221 
441 2 -10.8766 0.339355 15.353 -1.06235 
236 1 10.8766 5.97181 15.6098 -1.10858 
330 2 -10.8766 4.49412 12.5478 -0.575274 
6 1 10.8766 3.02905 13.8893 -0.587864 
58 1 10.8766 4.23363 12.5947 1.10132 
117 1 10.8766 5.84191 12.8675 -2.13316 
266 2 -10.8766 6.12152 14.5056 -1.67329 
346 2 -10.8766 2.71857 14.2357 -1.69149 
59 1 10.8766 8.42996 12.3868 0.888411 
123 1 10.8766 9.50034 14.6039 -0.821414 
246 2 -10.8766 9.4637 12.4565 0.277128 
396 2 -10.8766 9.91535 14.0099 -2.27486 
405 2 -10.8766 7.83729 12.9767 -2.14853 
434 2 -10.8766 12.075 15.9576 -2.37514 
163 1 10.8766 15.4804 12.3157 1.17626 
269 2 -10.8766 16.1004 13.2357 -0.564774 
214 1 10.8766 11.7473 11.9275 -0.343946 
241 2 -10.8766 13.2183 11.9018 -0.939996 
376 2 -10.8766 12.8003 11.8723 0.985601 
ITEM: TIMESTEP
1100
ITEM: NUMBER OF ATOMS
452
ITEM: BOX BOUNDS pp pp ff
-1.6160100000000000e+01 1.6160100000000000e+01
-1.6160100000000000e+01 1.6160100000000000e+01
-3.1646600000000000e+00 3.1646600000000000e+00
ITEM: ATOMS id type q x y z 
259 2 -10.8766 -13.0565 -13.2779 -0.403781 
265 2 -10.8766 -14.4586 -12.9736 0.846767 
308 2 -10.8766 -11.5865 -11.5164 -0.289828 
232 1 10.8766 -10.8065 -12.4634 1.11803 
63 1 10.8766 -9.24159 -16.0996 0.63573 
324 2 -10.8766 -9.83368 -13.0667 1.59899 
406 2 -10.8766 -11.1476 -14.099 -0.497412 
74 1 10.8766 -5.86064 -14.2558 -0.219083 
141 1 10.8766 -2.68217 -12.8123 0.663084 
188 1 10.8766 -4.23199 -13.3989 -0.741867 
424 2 -10.8766 -5.43457 -13.3338 1.68383 
436 2 -10.8766 -6.8865 -12.0226 -1.08684 
439 2 -10.8766 -3.00371 -13.2284 -1.86935 
451 2 -10.8766 -3.3311 -14.0803 0.323863 
213 1 10.8766 -2.50897 -11.7896 0.131962 
221 1 10.8766 -2.69646 -11.7735 -0.884484 
20 1 10.8766 -0.614855 -13.4197 -1.92769 
70 1 10.8766 0.657023 -15.3124 -1.43843 
80 1 10.8766 -0.302519 -15.239 1.63689 
228 1 10.8766 0.771994 -11.4761 -2.65519 
231 1 10.8766 0.151878 -12.6764 -0.911141 
291 2 -10.8766 1.05077 -13.2402 -1.24573 
316 2 -10.8766 1.2309 -15.1261 0.213403 
321 2 -10.8766 0.380955 -13.1843 0.285106 
343 2 -10.8766 -1.32516 -14.4492 -1.93749 
327 2 -10.8766 -0.72152 -11.6226 -2.44299 
66 1 10.8766 1.32324 -12.0762 0.915538 
30 1 10.8766 5.97589 -13.8563 -2.44419 
38 1 10.8766 2.66489 -14.3296 -0.287341 
72 1 10.8766 4.80626 -16.0669 -2.13139 
103 1 10.8766 6.65334 -15.071 -0.167086 
119 1 10.8766 5.24642 -14.8553 1.18409 
182 1 10.8766 5.47327 -13.0177 0.720958 
248 2 -10.8766 2.50011 -14.5952 -1.59617 
445 2 -10.8766 4.39937 -12.28 -1.53365 
348 2 -10.8766 6.09309 -15.138 -1.87122 
67 1 10.8766 2.80202 -11.9502 -0.272432 
10 1 10.8766 7.42944 -14.1244 1.66989 
45 1 10.8766 11.219 -15.1712 -0.69436 
76 1 10.8766 7.74829 -13.5751 -2.39484 
125 1 10.8766 8.04676 -14.986 1.71204 
297 2 -10.8766 10.7162 -15.2892 1.05616 
299 2 -10.8766 8.11374 -14.839 0.155862 
320 2 -10.8766 8.18137 -11.6157 -1.07236 
353 2 -10.8766 10.3922 -13.3468 2.12125 
438 2 -10.8766 7.57085 -16.1119 -1.38268 
281 2 -10.8766 7.33856 -12.8691 1.48251 
178 1 10.8766 10.605 -12.1981 -2.42102 
418 2 -10.8766 8.88061 -11.797 0.783407 
120 1 10.8766 11.5352 -13.6226 -0.665235 
151 1 10.8766 14.843 -11.5266 -1.3014 
240 1 10.8766 12.8222 -12.693 0.43764 
251 2 -10.8766 12.7621 -13.4578 -1.3827 
340 2 -10.8766 12.8102 -13.8548 -0.02147 
219 1 10.8766 12.3256 -11.8286 -0.89987 
183 1 10.8766 -15.1948 -11.4768 0.77973 
11 1 10.8766 -12.0538 -10.7006 0.582505 
112 1 10.8766 -13.5626 -9.32264 0.183245 
115 1 10.8766 -14.9979 -9.08442 1.4573 
205 1 10.8766 -14.6484 -10.9061 2.13644 
210 1 10.8766 -11.9643 -10.3545 -1.69798 
253 2 -10.8766 -14.4081 -10.9146 -1.82598 
313 2 -10.8766 -14.1331 -10.1339 0.983656 
317 2 -10.8766 -15.6418 -9.44248 -0.660039 
374 2 -10.8766 -11.8883 -9.51136 -0.763513 
26 1 10.8766 -15.4149 -7.5715 -1.58447 
50 1 10.8766 -13.4283 -7.77669 -2.62762 
235 1 10.8766 -13.0588 -8.32749 -1.11204 
225 1 10.8766 -9.63764 -11.5081 0.285998 
331 2 -10.8766 -7.98624 -10.311 -1.58151 
414 2 -10.8766 -11.5325 -9.47227 0.723203 
5 1 10.8766 -8.82071 -9.75896 -2.07739 
37 1 10.8766 -8.57759 -10.3639 0.23094 
54 1 10.8766 -10.5447 -7.65266 -2.64749 
131 1 10.8766 -8.06995 -9.53226 -0.642923 
247 2 -10.8766 -9.77656 -9.48925 1.2847 
432 2 -10.8766 -11.2335 -8.85561 -1.98232 
32 1 10.8766 -7.35633 -8.27232 -2.38314 
12 1 10.8766 -8.91706 -7.56493 -1.62235 
187 1 10.8766 -9.03633 -7.90277 -0.179406 
8 1 10.8766 -6.36739 -10.7721 -0.468673 
238 1 10.8766 -6.20181 -8.66383 -0.0456922 
284 2 -10.8766 -6.57664 -10.6988 1.4042 
403 2 -10.8766 -6.2917 -9.43179 -1.29873 
431 2 -10.8766 -6.43221 -7.22362 -2.20005 
18 1 10.8766 -5.35516 -9.37949 1.17464 
42 1 10.8766 -4.43159 -7.5369 -0.136857 
102 1 10.8766 -2.71463 -7.03546 -2.33935 
179 1 10.8766 -4.11768 -8.76167 0.512152 
211 1 10.8766 -4.87817 -7.40396 -2.37632 
366 2 -10.8766 -4.58305 -9.75527 -0.845133 
420 2 -10.8766 -4.94648 -10.6269 1.29178 
452 2 -10.8766 -6.90014 -9.68984 0.0167958 
408 2 -10.8766 -3.90088 -7.66599 -1.45043 
130 1 10.8766 -2.0371 -10.8622 0.0240124 
15 1 10.8766 -0.519198 -9.95115 0.819764 
190 1 10.8766 -2.09613 -8.60075 -0.157455 
227 1 10.8766 0.234359 -8.2392 -0.273179 
271 2 -10.8766 0.786987 -7.24643 2.09493 
298 2 -10.8766 -0.600954 -11.0154 -0.0941686 
315 2 -10.8766 2.17678 -9.64636 -2.40688 
351 2 -10.8766 0.272193 -6.93393 -0.519812 
367 2 -10.8766 1.25201 -9.314 1.47155 
347 2 -10.8766 -1.50023 -7.30004 -0.10665 
168 1 10.8766 3.04379 -9.13756 1.39535 
148 1 10.8766 5.81829 -8.74857 -1.13945 
170 1 10.8766 3.50019 -9.72102 -0.591019 
174 1 10.8766 3.64715 -9.44803 -2.34816 
368 2 -10.8766 3.7948 -8.34001 -1.41601 
393 2 -10.8766 2.29362 -10.1373 -0.148661 
280 2 -10.8766 10.4687 -10.762 -1.38672 
16 1 10.8766 7.00502 -11.415 -0.917405 
263 2 -10.8766 7.19392 -9.62818 -1.20207 
52 1 10.8766 10.3298 -8.92943 -1.23036 
137 1 10.8766 10.6784 -8.05496 -1.93751 
155 1 10.8766 9.40367 -8.29892 -1.34485 
410 2 -10.8766 8.177 -10.4411 0.590636 
442 2 -10.8766 8.63513 -7.63535 -0.756683 
156 1 10.8766 10.983 -9.94561 0.195726 
341 2 -10.8766 10.8766 -7.80639 0.680467 
193 1 10.8766 8.3413 -7.43922 1.27502 
165 1 10.8766 9.72783 -7.01118 -1.59671 
380 2 -10.8766 15.6837 -7.82884 -1.16547 
35 1 10.8766 13.3755 -9.71429 1.00301 
87 1 10.8766 14.0303 -9.42788 -2.49025 
126 1 10.8766 13.284 -7.46851 -0.716384 
196 1 10.8766 12.241 -9.33863 -1.40737 
325 2 -10.8766 14.3294 -10.6496 -2.38886 
95 1 10.8766 -14.4546 -5.99446 2.54677 
290 2 -10.8766 -12.9373 -6.61499 1.30941 
17 1 10.8766 -16.0668 -5.19777 1.31868 
122 1 10.8766 -14.6145 -4.53181 -1.24649 
134 1 10.8766 -12.2624 -6.86263 -0.291419 
175 1 10.8766 -16.0864 -2.29388 -0.258063 
262 2 -10.8766 -11.5701 -3.85206 0.75107 
397 2 -10.8766 -15.1928 -3.49255 -0.102618 
401 2 -10.8766 -13.353 -2.47945 0.694974 
75 1 10.8766 -11.7288 -2.42658 -1.02573 
391 2 -10.8766 -15.0479 -3.4921 2.21663 
135 1 10.8766 -12.5708 -2.73796 2.67128 
113 1 10.8766 -10.8537 -5.02107 1.87337 
27 1 10.8766 -6.80805 -4.55123 1.42014 
40 1 10.8766 -6.93857 -2.60492 -0.0971657 
136 1 10.8766 -8.70757 -4.71326 0.391075 
194 1 10.8766 -8.16119 -5.25102 -0.615436 
292 2 -10.8766 -10.5659 -2.85058 -0.00298919 
358 2 -10.8766 -11.3798 -3.41705 -1.61113 
362 2 -10.8766 -9.31406 -6.1001 -1.35115 
429 2 -10.8766 -7.40135 -6.62916 -0.177753 
447 2 -10.8766 -7.73728 -3.05496 -2.12491 
444 2 -10.8766 -8.47048 -5.04311 1.64502 
192 1 10.8766 -10.223 -3.82562 -1.27816 
203 1 10.8766 -6.29181 -4.42978 -2.05333 
48 1 10.8766 -4.6502 -4.48552 -0.384352 
111 1 10.8766 -6.70699 -5.25999 -1.24918 
275 2 -10.8766 -5.00307 -2.8914 -2.42206 
323 2 -10.8766 -3.04477 -4.95102 0.853919 
371 2 -10.8766 -6.10286 -4.40515 -0.431883 
372 2 -10.8766 -3.23103 -3.68713 -2.0193 
409 2 -10.8766 -5.37824 -5.18036 -1.76136 
312 2 -10.8766 2.06603 -6.37862 -0.354162 
449 2 -10.8766 1.74572 -5.94899 -2.25111 
44 1 10.8766 -1.32147 -5.60116 -2.00572 
49 1 10.8766 1.73269 -2.78125 -1.92854 
144 1 10.8766 0.0643618 -6.82155 0.966296 
167 1 10.8766 -1.43253 -2.88696 -1.2323 
173 1 10.8766 -0.507652 -3.6558 -1.78483 
260 2 -10.8766 0.723553 -4.33637 -1.16335 
142 1 10.8766 5.62752 -4.74666 0.854741 
159 1 10.8766 6.7788 -2.61157 -0.0904988 
209 1 10.8766 3.67964 -5.88436 2.11668 
250 2 -10.8766 3.4351 -4.56278 -2.28822 
268 2 -10.8766 3.16948 -4.23919 1.38808 
295 2 -10.8766 5.25475 -3.17951 0.140937 
360 2 -10.8766 4.22359 -5.47433 0.437008 
395 2 -10.8766 5.47978 -3.22897 -1.57552 
127 1 10.8766 6.7183 -5.03393 -0.771659 
176 1 10.8766 8.43625 -3.75273 -2.56096 
300 2 -10.8766 7.72013 -5.81761 0.731042 
39 1 10.8766 11.2711 -5.34914 1.09268 
242 2 -10.8766 11.0613 -6.57748 -1.82717 
305 2 -10.8766 7.41158 -3.55768 -0.4836 
370 2 -10.8766 8.62584 -6.27739 -1.36044 
387 2 -10.8766 8.45483 -3.30663 2.44431 
412 2 -10.8766 9.21177 -4.40026 -1.3933 
65 1 10.8766 6.91519 -3.49916 -1.90752 
306 2 -10.8766 7.61859 -2.2698 -1.03689 
1 1 10.8766 15.025 -6.68281 -0.903728 
398 2 -10.8766 12.1122 -4.2051 -0.544305 
207 1 10.8766 14.3298 -3.08495 0.310407 
334 2 -10.8766 12.59 -2.55937 -1.42265 
359 2 -10.8766 15.1528 -4.45264 -1.36919 
361 2 -10.8766 15.8125 -6.15218 0.7724 
307 2 -10.8766 14.9437 -2.60088 -2.36446 
21 1 10.8766 -14.192 -0.472061 -0.354212 
108 1 10.8766 -14.3985 -0.241829 -1.44701 
133 1 10.8766 -14.0144 1.05885 -1.34739 
161 1 10.8766 -13.0192 0.645088 1.64989 
172 1 10.8766 -12.4797 1.43474 -2.46246 
427 2 -10.8766 -11.7921 0.317872 0.152044 
428 2 -10.8766 -14.8435 0.373838 0.187001 
34 1 10.8766 -12.1683 -1.65785 -1.64216 
24 1 10.8766 -12.6675 1.77218 -0.385783 
177 1 10.8766 -11.8799 1.54684 2.46255 
4 1 10.8766 -10.8697 -1.01824 0.368013 
13 1 10.8766 -10.801 1.73208 -2.63447 
121 1 10.8766 -7.28296 0.0377355 -1.67831 
186 1 10.8766 -7.14453 -1.88541 1.85161 
204 1 10.8766 -7.89205 1.48595 0.0502883 
212 1 10.8766 -10.089 0.807524 0.620372 
220 1 10.8766 -9.2191 1.09363 -2.00594 
322 2 -10.8766 -9.68288 1.01511 2.45205 
373 2 -10.8766 -9.0953 -0.280755 0.357518 
356 2 -10.8766 -7.85146 -1.15708 -1.70051 
261 2 -10.8766 -9.0838 1.95461 -0.284015 
349 2 -10.8766 -5.63556 -1.25565 -0.930973 
129 1 10.8766 -6.81155 0.184263 1.78656 
139 1 10.8766 -6.86776 1.61402 -0.954428 
287 2 -10.8766 -6.15673 1.27112 1.34921 
443 2 -10.8766 -5.8689 0.0830927 -2.30329 
51 1 10.8766 -4.4214 -1.01088 -1.19448 
109 1 10.8766 -4.85271 0.875578 -0.759732 
143 1 10.8766 -4.46225 2.18476 -2.6628 
215 1 10.8766 -5.61536 0.0675844 0.040117 
234 1 10.8766 -4.37642 -2.32154 0.427625 
335 2 -10.8766 -4.62845 -1.28641 0.892983 
400 2 -10.8766 -3.46939 1.32277 0.1694 
146 1 10.8766 -5.55857 1.56332 -1.70734 
69 1 10.8766 -4.78017 2.034 2.55996 
344 2 -10.8766 1.3003 -1.59145 -1.14703 
243 2 -10.8766 -1.8152 0.157111 -2.30124 
337 2 -10.8766 -2.14318 1.05123 -0.285208 
7 1 10.8766 -0.606601 1.12087 -1.40613 
47 1 10.8766 1.94409 -0.901523 0.520261 
86 1 10.8766 -0.049995 -1.8366 -0.756652 
118 1 10.8766 1.02339 0.0385641 -1.13723 
145 1 10.8766 -1.14087 1.14112 0.602786 
382 2 -10.8766 -0.496725 -0.344937 -1.89638 
419 2 -10.8766 1.98033 1.03745 0.558775 
71 1 10.8766 1.93576 1.75593 -1.50427 
105 1 10.8766 2.19722 0.452387 2.42 
56 1 10.8766 4.71835 -0.805786 -2.10242 
60 1 10.8766 4.8915 2.18113 0.13099 
61 1 10.8766 6.77842 -1.20699 2.33668 
101 1 10.8766 3.03556 -0.156953 0.57652 
124 1 10.8766 4.23307 0.47529 -1.45965 
149 1 10.8766 4.60802 -0.642644 -0.526203 
185 1 10.8766 5.24088 0.558155 -0.801388 
294 2 -10.8766 2.62486 -0.765329 -1.94801 
301 2 -10.8766 5.55217 1.45135 1.86983 
339 2 -10.8766 6.42844 0.178136 -1.346 
355 2 -10.8766 3.18904 0.748524 -2.31138 
399 2 -10.8766 5.15156 1.02272 -2.33251 
407 2 -10.8766 5.54634 -0.321581 0.378586 
64 1 10.8766 6.1621 -1.81196 -1.52675 
206 1 10.8766 6.93072 1.10905 2.1052 
333 2 -10.8766 6.22004 1.56541 0.315172 
385 2 -10.8766 10.5218 -1.74722 -2.22521 
106 1 10.8766 9.34118 0.0296749 -0.363452 
181 1 10.8766 6.90785 0.645905 -2.61614 
208 1 10.8766 10.4078 -0.222592 -1.91657 
384 2 -10.8766 7.82414 0.200039 -1.09726 