ITEM: TIMESTEP
1000
ITEM: NUMBER OF ATOMS
452
ITEM: BOX BOUNDS pp pp ff
-1.6160100000000000e+01 1.6160100000000000e+01
-1.6160100000000000e+01 1.6160100000000000e+01
-3.1646600000000000e+00 3.1646600000000000e+00
ITEM: ATOMS id type q x y z 
1 1 10.8766 -14.9495 -15.3837 -2.54315 
6 1 10.8766 -14.9555 -14.7422 -1.44479 
8 1 10.8766 -15.572 -15.1975 2.18094 
10 1 10.8766 -15.8783 -13.4228 -0.955487 
11 1 10.8766 -15.9057 -12.917 0.844574 
12 1 10.8766 -14.7261 -12.7839 2.04906 
97 1 10.8766 -13.4909 -15.4333 -2.65759 
99 1 10.8766 -14.9322 -15.8642 -0.612428 
100 1 10.8766 -13.0758 -14.7921 2.59387 
101 1 10.8766 -13.8978 -14.1873 -2.58492 
102 1 10.8766 -13.2045 -13.84 -1.21384 
103 1 10.8766 -12.7104 -15.3752 0.571138 
104 1 10.8766 -14.4877 -15.0548 2.20866 
105 1 10.8766 -14.0405 -12.7495 -2.49325 
106 1 10.8766 -13.9907 -13.1915 -0.976363 
107 1 10.8766 -13.2614 -12.3619 1.21466 
108 1 10.8766 -13.853 -12.1966 2.62826 
195 1 10.8766 -12.0887 -15.8136 -0.064804 
197 1 10.8766 -12.4929 -15.1453 -2.65276 
198 1 10.8766 -13.5487 -15.2619 -1.62114 
199 1 10.8766 -11.7153 -14.8092 1.05798 
200 1 10.8766 -13.4382 -13.8544 1.6394 
201 1 10.8766 -12.7348 -13.8878 -2.42444 
202 1 10.8766 -11.8144 -13.1999 -1.44114 
203 1 10.8766 -14.0215 -14.0454 0.0425884 
292 2 -10.8766 -12.2463 -15.6025 1.94152 
293 2 -10.8766 -11.6498 -14.3456 -2.11407 
294 2 -10.8766 -12.7538 -14.8404 -0.796202 
296 2 -10.8766 -12.0552 -14.1777 2.40793 
297 2 -10.8766 -12.6772 -12.616 -2.37905 
299 2 -10.8766 -12.8931 -13.8973 0.212212 
300 2 -10.8766 -12.8824 -13.0671 2.43327 
109 1 10.8766 -14.605 -11.6458 -2.62296 
110 1 10.8766 -13.9818 -12.3452 0.150329 
207 1 10.8766 -12.8744 -11.6614 -0.697282 
302 2 -10.8766 -11.9866 -12.4305 -0.559724 
303 2 -10.8766 -12.5863 -11.6405 0.552806 
204 1 10.8766 -11.36 -12.5906 1.63793 
289 2 -10.8766 -11.1385 -15.6002 -2.14226 
290 2 -10.8766 -10.9381 -15.4902 -0.604509 
291 2 -10.8766 -11.3337 -15.9286 0.781471 
295 2 -10.8766 -10.679 -14.2987 0.775561 
298 2 -10.8766 -11.3392 -14.1615 -0.74742 
387 2 -10.8766 -9.73673 -15.8298 1.17367 
389 2 -10.8766 -9.90093 -14.3727 -2.41916 
390 2 -10.8766 -9.4721 -14.7599 -0.628314 
391 2 -10.8766 -8.8993 -13.9001 1.34709 
392 2 -10.8766 -10.7528 -14.1928 2.25122 
393 2 -10.8766 -10.8022 -13.2409 -2.1048 
394 2 -10.8766 -9.41508 -13.038 -0.991955 
395 2 -10.8766 -10.9535 -12.9629 0.378582 
396 2 -10.8766 -10.0122 -12.6916 2.39761 
304 2 -10.8766 -11.2318 -11.6515 2.49128 
397 2 -10.8766 -10.2672 -11.7691 -2.46745 
399 2 -10.8766 -10.8174 -11.6077 0.936168 
2 1 10.8766 15.6657 -15.744 -1.89838 
4 1 10.8766 15.3543 -15.9569 2.36011 
5 1 10.8766 15.6415 -14.1689 -2.3539 
7 1 10.8766 15.7971 -14.2524 0.942301 
9 1 10.8766 15.0952 -12.3498 -2.59678 
14 1 10.8766 15.0111 -12.0473 -0.592496 
16 1 10.8766 15.9993 -12.9177 2.27385 
13 1 10.8766 -15.7181 -10.9497 -2.49761 
15 1 10.8766 -16.117 -11.2856 0.991026 
19 1 10.8766 -14.4794 -10.4055 -0.117213 
20 1 10.8766 -16.1015 -10.415 2.41007 
24 1 10.8766 -14.4466 -9.67446 2.14162 
27 1 10.8766 -15.1573 -7.80237 1.57622 
111 1 10.8766 -13.8817 -11.3736 1.34909 
112 1 10.8766 -13.2765 -10.7235 2.01356 
113 1 10.8766 -13.5936 -10.6342 -2.63885 
114 1 10.8766 -13.2079 -10.5665 -1.34556 
115 1 10.8766 -13.2673 -10.2607 0.510469 
116 1 10.8766 -13.5724 -9.40771 2.38303 
117 1 10.8766 -14.404 -8.56083 -2.59011 
118 1 10.8766 -12.6909 -9.25491 -1.6018 
119 1 10.8766 -14.0454 -8.8684 0.784219 
120 1 10.8766 -13.7879 -8.12201 2.48202 
122 1 10.8766 -15.4885 -7.8124 -0.550536 
123 1 10.8766 -13.599 -7.54695 1.10226 
124 1 10.8766 -13.9779 -6.93822 2.22354 
205 1 10.8766 -13.098 -11.5417 -2.08192 
206 1 10.8766 -11.6703 -11.2171 -1.1513 
208 1 10.8766 -12.421 -11.5321 2.56016 
209 1 10.8766 -11.7345 -9.81847 -2.2456 
211 1 10.8766 -12.0183 -10.4281 0.238872 
212 1 10.8766 -13.462 -9.86662 1.45854 
213 1 10.8766 -12.6119 -9.00844 -2.63968 
214 1 10.8766 -11.9497 -10.2247 -0.730488 
215 1 10.8766 -12.494 -8.07711 0.214571 
216 1 10.8766 -12.4255 -8.52115 2.31081 
217 1 10.8766 -13.1493 -8.00845 -2.56884 
218 1 10.8766 -13.967 -8.12935 -0.785888 
219 1 10.8766 -11.6732 -8.00901 1.67107 
220 1 10.8766 -12.4833 -7.36327 2.54103 
301 2 -10.8766 -12.0654 -10.9723 -2.36734 
307 2 -10.8766 -11.8207 -10.8089 1.56799 
308 2 -10.8766 -12.4051 -9.96019 2.43758 
310 2 -10.8766 -11.8459 -8.89483 -0.555226 
311 2 -10.8766 -12.6974 -9.34062 0.729298 
314 2 -10.8766 -12.9535 -8.03332 -1.40965 
30 1 10.8766 -16.0179 -6.95909 -1.39315 
223 1 10.8766 -12.8012 -7.08955 -0.0344875 
210 1 10.8766 -10.8886 -10.2853 -1.21428 
305 2 -10.8766 -10.673 -10.3133 -2.42335 
306 2 -10.8766 -10.8937 -10.4155 0.313195 
309 2 -10.8766 -11.4423 -8.72195 -2.30962 
312 2 -10.8766 -11.1775 -8.68633 2.45614 
315 2 -10.8766 -11.217 -7.70555 0.294739 
316 2 -10.8766 -11.31 -7.13837 2.37517 
398 2 -10.8766 -10.3484 -11.5161 -0.783058 
400 2 -10.8766 -8.83907 -11.3007 2.29549 
401 2 -10.8766 -8.89686 -10.6611 -2.44112 
402 2 -10.8766 -8.68957 -10.3815 -0.235991 
403 2 -10.8766 -8.61641 -10.0038 1.59554 
404 2 -10.8766 -10.5231 -9.98828 1.9851 
405 2 -10.8766 -9.68311 -9.27564 -2.4286 
406 2 -10.8766 -10.5215 -8.81185 -0.595119 
407 2 -10.8766 -10.999 -8.95232 0.705939 
408 2 -10.8766 -8.26354 -8.4225 2.29405 
409 2 -10.8766 -10.6886 -7.87299 -1.61226 
410 2 -10.8766 -9.07212 -7.41568 -0.995266 
411 2 -10.8766 -8.58394 -7.35835 0.966447 
412 2 -10.8766 -10.0751 -7.82519 2.37482 
17 1 10.8766 15.1418 -10.0868 -2.48109 
18 1 10.8766 14.5398 -10.107 -1.30441 
21 1 10.8766 15.4261 -8.90018 -2.55062 
22 1 10.8766 16.133 -9.07501 -0.992798 
23 1 10.8766 15.9502 -9.08047 0.66102 
26 1 10.8766 15.0953 -7.81795 -1.82171 
28 1 10.8766 16.0198 -7.75929 2.35513 
31 1 10.8766 15.1968 -7.18606 0.924765 
121 1 10.8766 -14.2237 -6.9028 -2.52865 
313 2 -10.8766 -12.6098 -6.61728 -2.44411 
29 1 10.8766 -15.6644 -5.71816 -2.46131 
33 1 10.8766 -15.824 -4.33378 -2.59075 
35 1 10.8766 -15.5043 -4.45459 0.0309582 
36 1 10.8766 -15.3901 -4.79395 1.87675 
39 1 10.8766 -15.9152 -3.16339 0.15164 
40 1 10.8766 -15.2209 -2.8942 2.69277 
125 1 10.8766 -13.5362 -5.41664 -2.48135 
126 1 10.8766 -12.9014 -6.40373 -1.30445 
127 1 10.8766 -14.3224 -5.66229 -0.0123171 
128 1 10.8766 -14.6598 -5.9849 1.43123 
129 1 10.8766 -14.2715 -4.26142 -2.28086 
130 1 10.8766 -12.9884 -4.76063 -1.76529 
131 1 10.8766 -12.3628 -4.58597 0.455261 
132 1 10.8766 -13.8442 -4.96733 2.1522 
133 1 10.8766 -13.8378 -3.26712 -2.63169 
134 1 10.8766 -13.4937 -3.40791 -1.19647 
135 1 10.8766 -14.6447 -3.54325 0.677575 
136 1 10.8766 -13.8093 -2.98731 2.3238 
222 1 10.8766 -12.6951 -5.53947 -0.48272 
224 1 10.8766 -13.2306 -5.50997 1.31545 
225 1 10.8766 -12.5167 -5.22484 -2.64793 
226 1 10.8766 -12.033 -4.68661 -1.37018 
227 1 10.8766 -11.8839 -4.78769 1.50479 
228 1 10.8766 -12.9518 -4.32082 1.34549 
229 1 10.8766 -13.1635 -2.34503 -2.50597 
230 1 10.8766 -12.779 -4.40203 -0.779829 
231 1 10.8766 -12.3112 -2.5326 -0.603684 
232 1 10.8766 -11.872 -3.67394 2.43483 
318 2 -10.8766 -11.7032 -6.71369 -0.709647 
319 2 -10.8766 -12.3901 -6.33815 0.856904 
320 2 -10.8766 -13.0282 -6.28994 2.31555 
322 2 -10.8766 -11.5495 -5.13808 -0.0761641 
324 2 -10.8766 -12.7458 -4.78028 2.43069 
325 2 -10.8766 -12.816 -3.60985 -2.21222 
326 2 -10.8766 -11.7648 -3.82502 -0.194542 
327 2 -10.8766 -13.1044 -2.99083 0.640118 
416 2 -10.8766 -11.6283 -5.74681 2.28639 
329 2 -10.8766 -11.8031 -2.46116 -2.47225 
332 2 -10.8766 -12.5113 -2.69598 2.0396 
221 1 10.8766 -11.2825 -5.63111 -1.37242 
317 2 -10.8766 -10.7287 -6.55484 -2.34854 
321 2 -10.8766 -11.3243 -5.0484 -2.47904 
323 2 -10.8766 -10.7589 -5.25499 1.16192 
328 2 -10.8766 -10.8281 -4.06418 2.41352 
413 2 -10.8766 -8.75639 -6.72751 -2.35489 
414 2 -10.8766 -10.2307 -6.12613 -0.273169 
415 2 -10.8766 -10.7226 -6.79051 1.24431 
417 2 -10.8766 -9.86345 -5.39972 -2.40049 
418 2 -10.8766 -7.66694 -4.87295 -0.637857 
419 2 -10.8766 -7.8661 -5.18358 1.46728 
420 2 -10.8766 -9.50969 -5.15651 1.96373 
421 2 -10.8766 -9.13445 -3.89869 -2.44533 
422 2 -10.8766 -10.7594 -4.13681 -1.39972 
423 2 -10.8766 -9.63562 -4.17827 0.829894 
424 2 -10.8766 -9.3136 -3.51783 2.24117 
235 1 10.8766 -11.0161 -2.3814 0.249382 
330 2 -10.8766 -10.9655 -2.3114 -1.18367 
331 2 -10.8766 -11.02 -3.65115 0.944783 
425 2 -10.8766 -8.26429 -2.35026 -2.4003 
426 2 -10.8766 -8.74376 -3.10047 -0.676457 
427 2 -10.8766 -8.4111 -2.71247 1.43605 
25 1 10.8766 16.1142 -6.89006 -2.58866 
32 1 10.8766 14.7011 -5.92823 2.16201 
34 1 10.8766 15.1698 -5.44733 -1.70545 
37 1 10.8766 15.0779 -3.55853 -2.62576 
38 1 10.8766 14.774 -3.0685 -1.02241 
42 1 10.8766 -15.8396 -1.0607 -1.16259 
44 1 10.8766 -15.6551 -0.919401 2.60205 
45 1 10.8766 -16.0755 -0.708035 -2.48717 
46 1 10.8766 -13.9934 -1.21192 -1.62519 
47 1 10.8766 -15.0024 0.515205 0.565225 
48 1 10.8766 -15.0951 0.26995 2.31212 
49 1 10.8766 -15.9958 0.80193 -2.56729 
50 1 10.8766 -15.2761 1.41628 -0.801101 
51 1 10.8766 -15.9184 1.10853 0.803983 
52 1 10.8766 -15.7931 1.26836 2.072 
54 1 10.8766 -15.5296 2.13558 -1.72996 
137 1 10.8766 -13.1193 -1.10758 -2.54986 
138 1 10.8766 -13.8581 -2.29986 -1.68405 
139 1 10.8766 -12.8641 -1.79219 0.609556 
140 1 10.8766 -14.5899 -2.04356 1.98655 
141 1 10.8766 -14.7088 -1.16023 -2.58267 
142 1 10.8766 -13.6497 -2.01181 -0.621565 
143 1 10.8766 -14.6622 -1.62628 0.722849 
144 1 10.8766 -13.6547 -1.26254 2.47056 
145 1 10.8766 -15.0243 0.0028825 -2.15377 
146 1 10.8766 -14.3836 0.375782 -1.20219 
147 1 10.8766 -14.3561 1.49433 0.820789 
148 1 10.8766 -14.3401 0.732604 1.58176 
150 1 10.8766 -14.1549 1.62345 -0.740543 
151 1 10.8766 -13.2615 2.07747 -0.1416 
152 1 10.8766 -14.5873 1.61603 2.50529 
233 1 10.8766 -11.7102 -0.428176 -1.48484 
234 1 10.8766 -12.0597 -1.61606 -1.17581 
236 1 10.8766 -13.5031 -1.93051 1.70479 
237 1 10.8766 -12.0895 -1.03034 -2.63534 
240 1 10.8766 -11.9454 -2.22427 1.04647 
241 2 -10.8766 -13.4997 0.125592 -2.41492 
242 2 -10.8766 -14.1373 -0.77331 -0.24051 
243 2 -10.8766 -13.6497 -0.890169 1.09869 
244 2 -10.8766 -13.9553 -0.172894 2.2187 
245 2 -10.8766 -14.6697 1.24966 -2.18088 
246 2 -10.8766 -13.1611 1.395 -1.147 
247 2 -10.8766 -13.6972 0.620045 0.354526 
248 2 -10.8766 -13.2913 1.42636 2.50602 
336 2 -10.8766 -12.4292 -1.21569 1.81718 
337 2 -10.8766 -11.9233 0.235333 -2.50439 
338 2 -10.8766 -13.0546 -0.0754698 -0.909114 
339 2 -10.8766 -12.1554 -0.247364 0.359961 
340 2 -10.8766 -12.5046 0.320577 1.59215 
341 2 -10.8766 -12.7266 1.29581 -2.39617 
343 2 -10.8766 -11.7362 1.08699 0.545636 
344 2 -10.8766 -11.7535 1.36508 2.26701 
251 2 -10.8766 -13.1499 1.84335 1.09312 
238 1 10.8766 -10.4633 -0.0147757 -1.37072 
239 1 10.8766 -11.4539 -1.29958 -0.0715134 
333 2 -10.8766 -10.964 -1.3183 -2.18302 
334 2 -10.8766 -10.0846 -1.06878 -0.231606 
335 2 -10.8766 -11.057 -1.07625 1.02393 
342 2 -10.8766 -11.4836 1.53945 -1.14776 
428 2 -10.8766 -11.3084 -2.13012 2.47644 
429 2 -10.8766 -9.34811 -1.24015 -2.42531 
430 2 -10.8766 -7.88436 -1.2339 -1.22196 
431 2 -10.8766 -8.53246 -1.13477 0.670944 
432 2 -10.8766 -10.2626 -0.925623 2.30773 
433 2 -10.8766 -9.56146 0.437374 -2.46033 
434 2 -10.8766 -9.79169 0.609229 -0.677553 
435 2 -10.8766 -10.0729 0.185629 0.961922 
436 2 -10.8766 -9.55387 0.480037 2.462 
437 2 -10.8766 -9.5484 1.95588 -2.40225 
438 2 -10.8766 -7.76445 1.51253 -0.409866 
440 2 -10.8766 -7.57933 1.99578 2.19093 
41 1 10.8766 15.3835 -2.12423 -2.61668 
43 1 10.8766 15.1624 -2.25155 0.833641 
53 1 10.8766 15.4766 1.5643 -2.50315 
55 1 10.8766 -14.5028 2.54555 -0.0203673 
149 1 10.8766 -14.852 2.56851 -2.62584 
57 1 10.8766 -15.7223 3.21112 -2.53502 
59 1 10.8766 -14.8928 3.05576 0.979513 
61 1 10.8766 -15.8864 4.28169 -2.52988 
63 1 10.8766 -15.5066 3.91678 0.608052 
64 1 10.8766 -15.6035 4.88922 2.10316 
68 1 10.8766 -14.3771 5.52718 1.15061 
153 1 10.8766 -14.3909 3.43275 -2.35397 
154 1 10.8766 -15.9474 3.6207 -0.65743 
155 1 10.8766 -12.9618 3.30059 0.0776546 
156 1 10.8766 -13.8096 2.86947 0.881853 
157 1 10.8766 -14.6779 4.39713 -2.61679 
158 1 10.8766 -14.3126 4.35335 -1.27437 
159 1 10.8766 -14.3245 4.43488 0.0158245 
160 1 10.8766 -13.8337 4.38208 1.07653 
161 1 10.8766 -14.043 5.39601 -2.39033 
162 1 10.8766 -15.7905 5.52492 -0.539768 
163 1 10.8766 -14.3491 6.15669 0.289095 
164 1 10.8766 -14.7953 5.53002 2.47765 
249 2 -10.8766 -13.7092 2.43341 -2.3594 
250 2 -10.8766 -14.4571 3.04517 -1.18873 
252 2 -10.8766 -15.5775 2.32465 2.25054 
253 2 -10.8766 -13.4671 4.25656 -2.37538 
254 2 -10.8766 -13.1387 4.01212 -0.922429 
255 2 -10.8766 -13.5089 3.58791 1.90995 
256 2 -10.8766 -14.8578 3.98418 2.24785 
257 2 -10.8766 -12.6136 5.53806 -2.30829 
258 2 -10.8766 -14.7282 5.58933 -1.32659 
259 2 -10.8766 -13.5503 5.25226 0.291247 
260 2 -10.8766 -13.5665 5.22729 2.14225 
345 2 -10.8766 -11.9148 2.73618 -2.42333 
346 2 -10.8766 -12.4411 2.61233 -0.744398 
348 2 -10.8766 -12.6281 2.70959 2.49823 
349 2 -10.8766 -11.8747 4.20844 -2.38428 
350 2 -10.8766 -11.629 4.55662 -0.650264 
351 2 -10.8766 -12.4221 4.4055 1.08167 
352 2 -10.8766 -12.3432 4.03457 2.29354 
354 2 -10.8766 -12.8443 5.68738 -0.926672 
355 2 -10.8766 -12.2373 5.72999 0.72391 
356 2 -10.8766 -12.0532 5.41915 2.14294 
70 1 10.8766 -15.8967 6.9091 -1.28679 
72 1 10.8766 -14.4065 6.58552 1.99987 
165 1 10.8766 -14.5301 6.44692 -2.59679 
262 2 -10.8766 -13.8348 6.90875 -0.605944 
263 2 -10.8766 -13.5152 6.43014 1.23564 
264 2 -10.8766 -12.9699 6.87398 2.43282 
439 2 -10.8766 -9.35613 2.46469 0.669227 
347 2 -10.8766 -11.4899 2.79629 1.82019 
353 2 -10.8766 -10.8935 5.31309 -2.38669 
441 2 -10.8766 -10.1711 3.87817 -2.46991 
442 2 -10.8766 -9.22468 3.06195 -0.74482 
443 2 -10.8766 -7.72562 3.93059 1.18464 
444 2 -10.8766 -10.119 3.16975 2.15929 
445 2 -10.8766 -7.41836 5.26398 -2.41801 
446 2 -10.8766 -9.07083 5.53967 -1.14775 
447 2 -10.8766 -8.00391 6.13295 0.646628 
448 2 -10.8766 -9.2443 4.29895 2.20406 
452 2 -10.8766 -8.50354 6.52165 2.00099 
360 2 -10.8766 -10.386 6.7208 2.28632 
56 1 10.8766 15.7125 2.34936 1.59275 
58 1 10.8766 15.5443 2.4195 -1.05049 
60 1 10.8766 15.8476 3.95397 2.54154 
62 1 10.8766 15.5081 4.63326 -0.264257 
65 1 10.8766 15.7272 5.40282 -2.54704 
66 1 10.8766 14.9562 6.05384 -0.918852 
67 1 10.8766 15.8558 5.99794 1.36767 
69 1 10.8766 15.9282 6.60542 -2.52528 
71 1 10.8766 -15.1274 8.16006 0.961122 
73 1 10.8766 -15.1185 7.31102 -2.57408 
74 1 10.8766 -14.7468 7.99015 -1.39495 
75 1 10.8766 -15.8526 9.22281 0.731853 
78 1 10.8766 -15.7029 8.83022 -0.902465 
79 1 10.8766 -15.2075 9.96011 -0.114534 
80 1 10.8766 -15.2715 9.25196 2.39877 
81 1 10.8766 -16.1338 11.4408 -2.62489 
82 1 10.8766 -14.6478 9.6895 -1.48574 
84 1 10.8766 -15.6719 10.4734 2.23865 
166 1 10.8766 -14.58 6.95387 -1.62843 
167 1 10.8766 -14.7058 7.11827 0.961781 
168 1 10.8766 -14.0655 7.59251 2.43126 
169 1 10.8766 -13.612 8.35937 -2.51491 
170 1 10.8766 -13.4281 7.87611 -1.5232 
171 1 10.8766 -12.9711 7.67312 0.328098 
172 1 10.8766 -14.1853 8.38532 1.1244 
173 1 10.8766 -14.7745 9.12597 -2.64741 
174 1 10.8766 -13.7886 9.08706 -1.32335 
175 1 10.8766 -14.1675 9.13508 0.290772 
176 1 10.8766 -14.5372 10.4246 2.05795 
177 1 10.8766 -14.8519 10.3409 -2.47275 
178 1 10.8766 -13.5085 10.9696 -1.09423 
179 1 10.8766 -15.2236 11.3081 -0.0132076 
180 1 10.8766 -13.2719 11.1907 1.75252 
261 2 -10.8766 -13.4582 6.94027 -2.47222 
265 2 -10.8766 -12.4927 8.80126 -2.35284 
266 2 -10.8766 -12.836 8.58097 -0.766012 
267 2 -10.8766 -13.2406 7.79005 1.54958 
268 2 -10.8766 -14.0195 8.76739 2.31243 
269 2 -10.8766 -13.7171 9.77214 -2.40997 
270 2 -10.8766 -13.4815 9.88871 -0.474602 
271 2 -10.8766 -13.1449 9.37593 1.10432 
272 2 -10.8766 -13.2825 10.0935 2.28543 
273 2 -10.8766 -13.7122 11.149 -2.47768 
274 2 -10.8766 -12.6517 11.2395 -0.346132 
275 2 -10.8766 -14.3338 10.645 0.526535 
276 2 -10.8766 -12.2104 11.4598 2.27383 
357 2 -10.8766 -12.0733 7.44488 -2.43023 
358 2 -10.8766 -11.917 7.59365 -0.339563 
359 2 -10.8766 -11.9766 6.93472 1.50128 
364 2 -10.8766 -12.1537 8.52529 2.43627 
366 2 -10.8766 -12.021 9.79773 -0.190033 
367 2 -10.8766 -12.2547 10.4397 1.29024 
369 2 -10.8766 -12.2608 10.6876 -2.43161 
86 1 10.8766 -14.9397 11.3179 -1.62295 
184 1 10.8766 -14.2016 11.0861 2.65521 
449 2 -10.8766 -7.91482 7.66262 -2.33276 
450 2 -10.8766 -9.5685 7.34242 -0.69772 
451 2 -10.8766 -9.01628 8.00805 1.4689 
361 2 -10.8766 -10.7712 8.97105 -2.45871 
362 2 -10.8766 -8.65621 8.93656 -0.561448 
363 2 -10.8766 -11.0046 9.05744 0.488227 
365 2 -10.8766 -10.3632 10.5231 -2.41118 
368 2 -10.8766 -10.5321 9.33255 1.76039 
370 2 -10.8766 -8.926 11.3363 -1.48578 
372 2 -10.8766 -10.6166 11.0543 2.26245 
76 1 10.8766 15.9263 8.50536 1.94379 
77 1 10.8766 15.7009 9.35154 -2.4926 
83 1 10.8766 15.0241 10.2123 -0.354426 
3 1 10.8766 -15.6177 15.9074 1.89914 
98 1 10.8766 -12.9108 15.6227 -0.952542 
193 1 10.8766 -12.4575 16.0834 -2.34525 
196 1 10.8766 -12.4427 15.9373 0.795913 
87 1 10.8766 -16.1438 11.5473 0.760596 
88 1 10.8766 -15.9406 12.3537 2.44149 
89 1 10.8766 -15.2193 13.3733 -2.60934 
91 1 10.8766 -15.4205 14.3354 0.689509 
93 1 10.8766 -15.7216 15.8166 -2.53934 
95 1 10.8766 -15.0991 15.6576 0.235795 
181 1 10.8766 -14.5608 12.2237 -2.56332 
182 1 10.8766 -13.3571 12.1782 -0.569432 
183 1 10.8766 -15.1242 13.3315 0.899127 
185 1 10.8766 -13.8302 13.7853 -2.65029 
186 1 10.8766 -14.3653 12.4043 -1.25246 
187 1 10.8766 -13.4045 13.4735 0.863291 
188 1 10.8766 -14.1374 12.9886 1.73013 
189 1 10.8766 -14.6306 14.599 -2.47146 
190 1 10.8766 -14.7412 13.3235 -1.71643 
191 1 10.8766 -13.3466 15.1173 -0.175004 
192 1 10.8766 -14.1953 14.4922 1.62256 
277 2 -10.8766 -13.5659 12.7781 -2.11069 
278 2 -10.8766 -12.3734 12.8493 -0.664907 
279 2 -10.8766 -14.2037 12.2847 0.600152 
280 2 -10.8766 -13.4763 12.381 2.41024 
281 2 -10.8766 -12.8486 14.4717 -2.05017 
282 2 -10.8766 -14.3133 13.4585 -0.297775 
283 2 -10.8766 -12.4163 14.4018 1.06815 
284 2 -10.8766 -13.3595 14.51 2.41352 
285 2 -10.8766 -13.9898 15.7582 -2.34314 
286 2 -10.8766 -15.0291 15.2382 -0.889036 
287 2 -10.8766 -13.8896 16.0329 0.416158 
288 2 -10.8766 -14.5116 15.8604 2.15975 
375 2 -10.8766 -11.9883 12.744 0.948032 
378 2 -10.8766 -12.6724 14.1238 -0.725315 
380 2 -10.8766 -11.7658 13.8832 2.45084 
381 2 -10.8766 -11.6597 15.3387 -2.49792 
382 2 -10.8766 -11.8219 15.0061 -0.185264 
384 2 -10.8766 -12.1118 15.3447 2.44032 
194 1 10.8766 -11.4779 15.7918 -1.28682 
385 2 -10.8766 -10.0437 15.6872 -2.41138 
386 2 -10.8766 -9.36964 15.625 -0.915088 
388 2 -10.8766 -8.71414 16.1442 2.41469 
371 2 -10.8766 -11.208 11.6939 0.492903 
373 2 -10.8766 -10.6775 12.235 -2.4027 
374 2 -10.8766 -11.0608 13.2558 -0.535277 
376 2 -10.8766 -10.9209 12.6632 2.29053 
377 2 -10.8766 -9.19377 14.2216 -2.33661 
379 2 -10.8766 -9.78364 14.0056 0.146898 
383 2 -10.8766 -10.6533 14.94 0.96208 
85 1 10.8766 15.5899 13.086 -2.6456 
90 1 10.8766 15.9284 13.455 -1.28816 
92 1 10.8766 15.5971 12.6124 1.49146 
94 1 10.8766 15.8746 14.756 -1.44479 
96 1 10.8766 15.9457 14.4768 1.95741 
ITEM: TIMESTEP
1100
ITEM: NUMBER OF ATOMS
452
ITEM: BOX BOUNDS pp pp ff
-1.6160100000000000e+01 1.6160100000000000e+01
-1.6160100000000000e+01 1.6160100000000000e+01
-3.1646600000000000e+00 3.1646600000000000e+00
ITEM: ATOMS id type q x y z 
1 1 10.8766 -14.8904 -15.4703 -2.51594 
6 1 10.8766 -14.9196 -14.7097 -1.52109 
8 1 10.8766 -15.5786 -15.3229 2.11691 
10 1 10.8766 -15.9376 -13.5054 -0.956423 
11 1 10.8766 -15.9563 -12.9769 0.936785 
12 1 10.8766 -14.6194 -12.8233 2.00907 
97 1 10.8766 -13.4229 -15.4383 -2.56572 
99 1 10.8766 -14.9434 -16.0054 -0.524647 
100 1 10.8766 -13.0591 -14.7437 2.63225 
101 1 10.8766 -13.7865 -14.2437 -2.55037 
102 1 10.8766 -13.0599 -13.7875 -1.1164 
103 1 10.8766 -12.5246 -15.3382 0.789477 
104 1 10.8766 -14.5159 -15.1277 2.20644 
105 1 10.8766 -14.1903 -12.7902 -2.5138 
106 1 10.8766 -13.9218 -13.1502 -0.942552 
107 1 10.8766 -13.2086 -12.4405 1.42235 
108 1 10.8766 -13.9079 -12.1969 2.6233 
195 1 10.8766 -11.9923 -15.8287 -0.279072 
197 1 10.8766 -12.2656 -15.2783 -2.58851 
198 1 10.8766 -13.6141 -15.3963 -1.4774 
199 1 10.8766 -11.5864 -14.7961 1.23384 
200 1 10.8766 -13.4775 -13.9822 1.60633 
201 1 10.8766 -12.6442 -13.8875 -2.35561 
202 1 10.8766 -11.682 -13.203 -1.50963 
203 1 10.8766 -14.2231 -14.1805 0.158899 
292 2 -10.8766 -12.3363 -15.6539 1.87439 
293 2 -10.8766 -11.6441 -14.355 -2.07875 
294 2 -10.8766 -12.8183 -14.9711 -0.651756 
296 2 -10.8766 -12.1357 -14.0539 2.48811 
297 2 -10.8766 -12.5974 -12.6828 -2.34588 
299 2 -10.8766 -12.9599 -13.8687 0.261959 
300 2 -10.8766 -13.1529 -12.9467 2.36389 
109 1 10.8766 -14.5896 -11.6742 -2.62755 
110 1 10.8766 -13.883 -12.4834 0.240807 
207 1 10.8766 -12.954 -11.6214 -0.760854 
302 2 -10.8766 -12.003 -12.5433 -0.430372 
303 2 -10.8766 -12.8011 -11.6959 0.507767 
204 1 10.8766 -11.093 -12.7238 1.50989 
289 2 -10.8766 -11.0599 -15.6139 -2.11754 
290 2 -10.8766 -10.8507 -15.5392 -0.657837 
291 2 -10.8766 -11.2541 -15.9793 0.821305 
295 2 -10.8766 -10.6126 -14.2874 0.730124 
298 2 -10.8766 -11.4221 -14.3412 -0.760115 
387 2 -10.8766 -9.58976 -15.8191 1.19744 
389 2 -10.8766 -9.93424 -14.393 -2.38089 
390 2 -10.8766 -9.45083 -14.8087 -0.625212 
391 2 -10.8766 -8.72028 -13.7934 1.41164 
392 2 -10.8766 -10.7164 -14.1597 2.3413 
393 2 -10.8766 -10.7119 -13.2183 -2.18384 
394 2 -10.8766 -9.38851 -13.0295 -1.0055 
395 2 -10.8766 -10.9928 -12.9916 0.312102 
396 2 -10.8766 -10.0819 -12.6782 2.28244 
304 2 -10.8766 -11.0648 -11.5855 2.43979 
397 2 -10.8766 -10.3161 -11.6879 -2.41199 
399 2 -10.8766 -10.9012 -11.6072 1.0569 
2 1 10.8766 15.5088 -15.8316 -1.96336 
4 1 10.8766 15.203 -15.8976 2.3778 
5 1 10.8766 15.4786 -14.1966 -2.38438 
7 1 10.8766 15.6738 -14.3093 1.04199 
9 1 10.8766 14.8998 -12.3542 -2.50855 
14 1 10.8766 14.7751 -12.0682 -0.55867 
16 1 10.8766 15.8794 -13.031 2.47428 
13 1 10.8766 -15.7608 -10.922 -2.52526 
15 1 10.8766 16.0901 -11.3222 1.07582 
19 1 10.8766 -14.4169 -10.4425 -0.149099 
20 1 10.8766 16.1109 -10.4225 2.658 
24 1 10.8766 -14.6619 -9.7994 2.26492 
27 1 10.8766 -15.1398 -7.79074 1.75289 
111 1 10.8766 -13.7402 -11.4413 1.48207 
112 1 10.8766 -13.0582 -10.6958 2.02205 
113 1 10.8766 -13.4674 -10.5689 -2.52411 
114 1 10.8766 -13.0222 -10.5009 -1.26903 
115 1 10.8766 -13.179 -10.4923 0.514169 
116 1 10.8766 -13.4967 -9.18062 2.45417 
117 1 10.8766 -14.4563 -8.62577 -2.6509 
118 1 10.8766 -12.5228 -9.34744 -1.55073 
119 1 10.8766 -13.9393 -8.85164 0.861194 
120 1 10.8766 -13.8893 -8.12935 2.64411 
122 1 10.8766 -15.6232 -7.79584 -0.505839 
123 1 10.8766 -13.5366 -7.65894 1.17285 
124 1 10.8766 -14.1509 -6.9717 2.21848 
205 1 10.8766 -13.1814 -11.5928 -2.03496 
206 1 10.8766 -11.3605 -11.33 -1.18055 
208 1 10.8766 -12.4005 -11.6359 2.6649 
209 1 10.8766 -11.6786 -9.78333 -2.18619 
211 1 10.8766 -12.0552 -10.4754 0.289593 
212 1 10.8766 -13.4686 -9.80754 1.49613 
213 1 10.8766 -12.5434 -8.99038 -2.6021 
214 1 10.8766 -11.6242 -10.1349 -0.819533 
215 1 10.8766 -12.5525 -8.139 0.231066 
216 1 10.8766 -12.2576 -8.53092 2.291 
217 1 10.8766 -13.0202 -8.03636 -2.65782 
218 1 10.8766 -14.045 -8.1803 -0.723228 
219 1 10.8766 -11.512 -7.92085 1.47029 
220 1 10.8766 -12.3461 -7.32983 2.67287 
301 2 -10.8766 -12.065 -10.9033 -2.22329 
307 2 -10.8766 -12.0183 -10.8518 1.54228 
308 2 -10.8766 -12.3763 -9.89288 2.50826 
310 2 -10.8766 -12.0156 -8.93712 -0.404994 
311 2 -10.8766 -12.8775 -9.09615 0.683183 
314 2 -10.8766 -13.0912 -8.14804 -1.42886 
30 1 10.8766 -16.0797 -6.94984 -1.37583 
223 1 10.8766 -12.7241 -7.14593 -0.0276116 
210 1 10.8766 -10.5473 -10.2682 -1.12947 
305 2 -10.8766 -10.4971 -10.4521 -2.34308 
306 2 -10.8766 -10.6263 -10.3265 0.461526 
309 2 -10.8766 -11.4868 -8.58801 -2.28438 
312 2 -10.8766 -10.9746 -8.815 2.40899 
315 2 -10.8766 -11.1248 -7.58897 0.186549 
316 2 -10.8766 -11.2535 -7.03237 2.40589 
398 2 -10.8766 -10.3942 -11.5298 -0.746904 
400 2 -10.8766 -8.7927 -11.4101 2.25878 
401 2 -10.8766 -8.81999 -10.726 -2.44568 
402 2 -10.8766 -8.60169 -10.4092 -0.19158 
403 2 -10.8766 -8.50765 -9.88414 1.62504 
404 2 -10.8766 -10.5331 -10.163 1.99927 
405 2 -10.8766 -9.63377 -9.24431 -2.43069 
406 2 -10.8766 -10.524 -8.86572 -0.601865 
407 2 -10.8766 -11.1768 -9.09345 0.765763 
408 2 -10.8766 -8.14651 -8.40243 2.18999 
409 2 -10.8766 -10.7159 -7.84901 -1.47961 
410 2 -10.8766 -9.02732 -7.45275 -0.952984 
411 2 -10.8766 -8.48879 -7.35832 1.03851 
412 2 -10.8766 -9.94559 -7.92014 2.48373 
17 1 10.8766 14.9592 -10.1192 -2.50116 
18 1 10.8766 14.255 -10.1575 -1.31399 
21 1 10.8766 15.2828 -8.929 -2.59334 
22 1 10.8766 16.0638 -9.12137 -0.982062 
23 1 10.8766 15.7992 -9.08444 0.75445 
26 1 10.8766 14.8475 -7.77472 -1.85526 
28 1 10.8766 15.917 -7.76167 2.21724 
31 1 10.8766 14.9892 -7.21669 1.01369 
121 1 10.8766 -14.1474 -6.85713 -2.47798 
313 2 -10.8766 -12.7853 -6.45372 -2.48841 
29 1 10.8766 -15.6869 -5.65332 -2.42379 
33 1 10.8766 -15.861 -4.25249 -2.64063 
35 1 10.8766 -15.5281 -4.41978 0.0481948 
36 1 10.8766 -15.4083 -4.73079 2.0459 
39 1 10.8766 -16.0175 -3.08417 0.17334 
40 1 10.8766 -15.2613 -2.91164 2.48022 
125 1 10.8766 -13.426 -5.37479 -2.52851 
126 1 10.8766 -12.7311 -6.3498 -1.28364 
127 1 10.8766 -14.2311 -5.5915 -0.00133825 
128 1 10.8766 -14.8634 -5.93327 1.3831 
129 1 10.8766 -14.2317 -4.19694 -2.22342 
130 1 10.8766 -12.9363 -4.86825 -1.73389 
131 1 10.8766 -12.1861 -4.57042 0.721627 
132 1 10.8766 -14.0536 -4.85091 1.9868 
133 1 10.8766 -13.9912 -3.14949 -2.61114 
134 1 10.8766 -13.3595 -3.36545 -1.06073 
135 1 10.8766 -14.7054 -3.5551 0.749405 
136 1 10.8766 -13.9455 -2.97392 2.19992 
222 1 10.8766 -12.5936 -5.58934 -0.354865 
224 1 10.8766 -13.1389 -5.46054 1.37678 
225 1 10.8766 -12.3886 -5.30294 -2.60236 
226 1 10.8766 -11.8705 -4.66538 -1.41184 
227 1 10.8766 -11.7276 -4.66835 1.65534 
228 1 10.8766 -12.9548 -4.25077 1.24048 
229 1 10.8766 -13.0286 -2.28826 -2.62995 
230 1 10.8766 -12.7952 -4.36822 -0.745306 
231 1 10.8766 -12.052 -2.38543 -0.676393 
232 1 10.8766 -11.7883 -3.65566 2.31659 
318 2 -10.8766 -11.8319 -6.75516 -0.807669 
319 2 -10.8766 -12.4046 -6.28424 0.744512 
320 2 -10.8766 -13.1379 -6.30437 2.1235 
322 2 -10.8766 -11.4546 -5.30906 0.0421433 
324 2 -10.8766 -12.7852 -4.7237 2.46476 
325 2 -10.8766 -12.8502 -3.49184 -2.215 
326 2 -10.8766 -11.8506 -3.70226 -0.216621 
327 2 -10.8766 -13.2461 -3.03624 0.599028 
416 2 -10.8766 -11.6465 -5.62439 2.2993 
329 2 -10.8766 -11.8807 -2.49134 -2.43029 
332 2 -10.8766 -12.6289 -2.75261 2.00606 
221 1 10.8766 -10.9606 -5.57323 -1.27013 
317 2 -10.8766 -10.7275 -6.58747 -2.49971 
321 2 -10.8766 -11.3148 -5.02176 -2.31989 
323 2 -10.8766 -10.7202 -5.34768 1.30258 
328 2 -10.8766 -10.6412 -4.26825 2.3506 
413 2 -10.8766 -8.66035 -6.74919 -2.3618 
414 2 -10.8766 -10.2095 -6.15933 -0.226071 
415 2 -10.8766 -10.7098 -6.78081 1.1693 
417 2 -10.8766 -9.7998 -5.45547 -2.41305 
418 2 -10.8766 -7.47128 -4.87769 -0.619723 
419 2 -10.8766 -7.69479 -5.2175 1.58452 
420 2 -10.8766 -9.50972 -5.21068 1.90367 
421 2 -10.8766 -9.13041 -3.95196 -2.46407 
422 2 -10.8766 -10.7084 -4.04831 -1.43026 
423 2 -10.8766 -9.45972 -4.2311 0.844096 
424 2 -10.8766 -9.17554 -3.51235 2.16574 
235 1 10.8766 -10.6693 -2.38155 0.219686 
330 2 -10.8766 -10.9602 -2.42591 -1.18658 
331 2 -10.8766 -11.1257 -3.92077 1.03143 
425 2 -10.8766 -8.11573 -2.38312 -2.41535 
426 2 -10.8766 -8.68901 -3.17841 -0.663618 
427 2 -10.8766 -8.27464 -2.75235 1.53949 
25 1 10.8766 16.0295 -6.82963 -2.51961 
32 1 10.8766 14.4709 -5.88234 2.32787 
34 1 10.8766 14.9539 -5.44247 -1.75794 
37 1 10.8766 14.8901 -3.54647 -2.6201 
38 1 10.8766 14.5417 -3.00226 -1.01514 
42 1 10.8766 -15.8886 -0.95794 -1.14548 
44 1 10.8766 -15.6726 -0.78077 2.62092 
45 1 10.8766 -16.1523 -0.700307 -2.50519 
46 1 10.8766 -13.9091 -1.28793 -1.71568 
47 1 10.8766 -14.9895 0.572241 0.702262 
48 1 10.8766 -15.2591 0.387477 2.27568 
49 1 10.8766 -16.0379 0.890849 -2.54222 
50 1 10.8766 -15.3184 1.49754 -0.77913 
51 1 10.8766 -16.0463 1.21452 0.904321 
52 1 10.8766 -16.0444 1.02366 2.1259 
54 1 10.8766 -15.6146 2.24997 -1.66573 
137 1 10.8766 -13.0726 -1.04919 -2.61678 
138 1 10.8766 -13.7642 -2.29833 -1.80734 
139 1 10.8766 -12.4756 -1.68848 0.510598 
140 1 10.8766 -14.5991 -1.9742 2.15279 
141 1 10.8766 -14.7189 -1.26981 -2.62211 
142 1 10.8766 -13.4765 -2.09704 -0.546079 
143 1 10.8766 -14.8683 -1.71666 0.709837 
144 1 10.8766 -13.5809 -1.21214 2.50075 
145 1 10.8766 -15.0933 -0.0286317 -2.1338 
146 1 10.8766 -14.2599 0.417415 -1.18668 
147 1 10.8766 -14.4854 1.56644 0.855066 
148 1 10.8766 -14.2634 0.716015 1.56336 
150 1 10.8766 -14.2932 1.77537 -0.54904 
151 1 10.8766 -13.1412 2.14032 0.00148239 
152 1 10.8766 -14.5797 1.71657 2.59254 
233 1 10.8766 -11.4297 -0.313037 -1.30766 
234 1 10.8766 -11.9261 -1.41361 -1.1808 
236 1 10.8766 -13.4115 -2.03687 1.56902 
237 1 10.8766 -11.9423 -0.996898 -2.61175 
240 1 10.8766 -11.6715 -2.2701 0.95538 
241 2 -10.8766 -13.6862 0.135932 -2.47931 
242 2 -10.8766 -14.4136 -1.05583 -0.145913 
243 2 -10.8766 -13.8414 -0.831296 1.03819 
244 2 -10.8766 -14.2164 -0.159399 2.45971 
245 2 -10.8766 -14.8196 1.08351 -2.12065 
246 2 -10.8766 -13.1336 1.3426 -1.01614 
247 2 -10.8766 -13.9202 0.546643 0.394493 
248 2 -10.8766 -13.2819 1.3338 2.39962 
336 2 -10.8766 -12.5705 -1.25259 1.76968 
337 2 -10.8766 -11.8409 0.179718 -2.39257 
338 2 -10.8766 -13.2195 -0.407982 -0.958295 
339 2 -10.8766 -12.276 -0.394416 0.228071 
340 2 -10.8766 -12.6474 0.290549 1.50488 
341 2 -10.8766 -12.7396 1.26303 -2.40265 
343 2 -10.8766 -11.7322 1.02515 0.519562 
344 2 -10.8766 -11.7898 1.42761 2.21218 
251 2 -10.8766 -13.0305 1.81124 1.20819 
238 1 10.8766 -10.272 0.0630791 -1.66242 
239 1 10.8766 -11.2498 -1.2031 -0.200723 
333 2 -10.8766 -10.7342 -1.43288 -2.16171 
334 2 -10.8766 -10.068 -1.16317 -0.142671 
335 2 -10.8766 -11 -1.05277 1.04234 
342 2 -10.8766 -11.5429 1.4188 -1.19686 
428 2 -10.8766 -11.4296 -2.11737 2.34659 
429 2 -10.8766 -9.30434 -1.29234 -2.37469 
430 2 -10.8766 -7.68536 -1.26034 -1.24789 
431 2 -10.8766 -8.41724 -1.18055 0.729125 
432 2 -10.8766 -10.2861 -0.99182 2.14485 
433 2 -10.8766 -9.55679 0.406701 -2.44477 
434 2 -10.8766 -9.58247 0.819823 -0.488899 