ITEM: TIMESTEP
1000
ITEM: NUMBER OF ATOMS
424
ITEM: BOX BOUNDS pp pp ff
-1.0728100000000000e+01 1.0728100000000000e+01
-1.0728100000000000e+01 1.0728100000000000e+01
-2.1009400000000000e+00 2.1009400000000000e+00
ITEM: ATOMS id type q x y z 
10 1 8.86201 -7.78652 -7.89346 -0.00963225 
149 1 8.86201 -9.34932 -6.5269 0.465715 
174 1 8.86201 -7.05864 -8.10419 -0.748479 
180 1 8.86201 -6.69592 -9.43163 0.844416 
194 1 8.86201 -9.89107 -6.85094 -1.22946 
199 1 8.86201 -8.13652 -10.0639 1.09806 
228 2 -8.86201 -10.5185 -6.64912 -0.337296 
282 2 -8.86201 -6.80338 -10.6471 1.45437 
288 2 -8.86201 -6.70914 -6.78941 -0.789666 
315 2 -8.86201 -7.49616 -9.85946 -1.22147 
338 2 -8.86201 -10.0665 -10.4778 -0.705423 
346 2 -8.86201 -8.33066 -6.82354 -0.974821 
395 2 -8.86201 -8.05113 -9.31848 0.1116 
424 2 -8.86201 -6.81529 -8.77329 -1.39715 
8 1 8.86201 -3.89612 -8.0647 0.300586 
30 1 8.86201 -2.75161 -6.7011 -1.39105 
51 1 8.86201 -6.30427 -10.6531 -0.494541 
61 1 8.86201 -3.93485 -8.87753 -0.955025 
108 1 8.86201 -4.16058 -7.19652 -1.12202 
117 1 8.86201 -3.18641 -8.73068 1.29649 
212 1 8.86201 -4.70582 -8.49024 1.01777 
238 2 -8.86201 -4.92916 -8.84884 -0.848974 
291 2 -8.86201 -5.08621 -9.98682 1.42579 
299 2 -8.86201 -3.29063 -9.65438 0.440265 
317 2 -8.86201 -3.74769 -10.1884 -1.42607 
360 2 -8.86201 -5.24185 -8.8349 0.156676 
383 2 -8.86201 -5.84543 -8.65938 0.94748 
412 2 -8.86201 -5.96547 -9.62844 -0.604621 
417 2 -8.86201 -3.774 -7.86795 1.61637 
14 1 8.86201 -2.3463 -7.72458 1.04598 
343 2 -8.86201 -2.28394 -8.04871 -1.17847 
281 2 -8.86201 -2.55767 -7.30641 -0.0957389 
213 2 -8.86201 -2.07695 -9.32924 -1.07277 
300 2 -8.86201 -0.564917 -9.83061 -1.51971 
18 1 8.86201 -1.00356 -7.94669 -0.867237 
53 1 8.86201 1.39599 -8.98778 -1.4303 
67 1 8.86201 0.513491 -10.0186 1.59524 
158 1 8.86201 -1.84943 -8.92891 0.138465 
172 1 8.86201 -0.835267 -6.7591 -1.18977 
177 1 8.86201 -0.514096 -9.23113 -0.374361 
235 2 -8.86201 0.667655 -7.725 -1.47248 
289 2 -8.86201 1.27288 -9.39007 0.598608 
302 2 -8.86201 -0.214967 -10.2846 -0.601891 
336 2 -8.86201 1.96546 -8.68628 -0.521502 
356 2 -8.86201 -0.450497 -8.0446 0.141017 
406 2 -8.86201 -1.07168 -8.90867 1.43629 
54 1 8.86201 1.69327 -7.76682 0.287291 
99 1 8.86201 1.35089 -9.9722 -1.27539 
277 2 -8.86201 1.58805 -7.01095 1.41322 
382 2 -8.86201 1.71551 -7.71262 -1.07237 
230 2 -8.86201 1.35265 -6.73305 -1.0729 
414 2 -8.86201 0.827054 -10.5634 -0.235362 
59 1 8.86201 3.08582 -10.0534 -1.49014 
266 2 -8.86201 2.498 -6.99826 0.533423 
15 1 8.86201 4.24697 -6.92079 1.11043 
28 1 8.86201 2.74364 -7.78829 -1.31536 
35 1 8.86201 3.3208 -8.84708 0.250945 
43 1 8.86201 5.74051 -7.37453 0.24834 
85 1 8.86201 4.88083 -8.31774 0.456669 
134 1 8.86201 5.4864 -10.189 0.395433 
184 1 8.86201 3.76695 -7.94005 1.3215 
253 2 -8.86201 3.33984 -8.68564 -1.37527 
305 2 -8.86201 3.67926 -7.22939 0.235284 
329 2 -8.86201 4.50169 -7.49967 -0.354719 
353 2 -8.86201 5.03493 -7.92578 1.59567 
359 2 -8.86201 5.31149 -9.47625 -0.434045 
369 2 -8.86201 5.60025 -7.37854 -1.54651 
148 1 8.86201 6.15087 -8.66336 -1.43379 
198 1 8.86201 3.40054 -6.95196 -1.44013 
200 1 8.86201 5.23133 -10.6896 -0.890748 
231 2 -8.86201 9.54991 -7.4084 -0.616695 
63 1 8.86201 7.11461 -9.64055 -1.24214 
256 2 -8.86201 6.47259 -9.05447 1.44398 
39 1 8.86201 6.51644 -10.2751 -0.41863 
100 1 8.86201 9.29611 -9.00224 -0.184958 
122 1 8.86201 8.44193 -7.81841 0.249416 
211 1 8.86201 6.50523 -8.03759 1.0498 
215 2 -8.86201 8.01354 -7.40398 -1.38431 
297 2 -8.86201 8.83123 -10.0866 -1.46688 
321 2 -8.86201 7.975 -9.54485 -0.265827 
405 2 -8.86201 8.88129 -10.2057 1.34092 
408 2 -8.86201 10.5716 -8.73342 -0.652171 
113 1 8.86201 6.97331 -6.62789 -1.44675 
379 2 -8.86201 6.87125 -6.6504 0.115479 
226 2 -8.86201 -7.3489 -6.31162 -0.032266 
16 1 8.86201 -10.3785 -4.86702 -0.0403157 
24 1 8.86201 -7.25882 -4.51028 -1.21028 
45 1 8.86201 -7.76124 -5.621 1.36278 
93 1 8.86201 -7.51234 -6.12547 -1.13503 
94 1 8.86201 -7.75924 -2.89774 1.11945 
102 1 8.86201 -8.58321 -2.55163 -0.90823 
111 1 8.86201 -9.50137 -3.9358 1.52981 
112 1 8.86201 -6.47915 -2.63629 1.58514 
146 1 8.86201 -9.49665 -2.81086 -0.328369 
151 1 8.86201 -7.30479 -4.41218 0.0839891 
219 2 -8.86201 -8.69472 -5.25059 -0.147002 
255 2 -8.86201 -8.86039 -5.73659 -1.43677 
261 2 -8.86201 -8.5181 -4.17858 1.08836 
262 2 -8.86201 -7.34134 -3.31682 -0.339622 
270 2 -8.86201 -9.76984 -5.78827 1.48537 
272 2 -8.86201 -10.0405 -5.61199 -0.843834 
384 2 -8.86201 -8.62932 -2.67498 0.269182 
400 2 -8.86201 -9.86302 -3.87713 -0.854313 
62 1 8.86201 -6.47413 -2.46494 -0.0237837 
17 1 8.86201 -2.97366 -6.29777 0.853137 
351 2 -8.86201 -6.41752 -5.51444 -1.51446 
5 1 8.86201 -5.50658 -6.31416 -1.49676 
11 1 8.86201 -4.42402 -3.6488 -0.855622 
25 1 8.86201 -5.53676 -3.25304 -0.482937 
34 1 8.86201 -5.29582 -6.14868 1.33382 
40 1 8.86201 -3.34701 -2.77154 -1.59428 
84 1 8.86201 -2.80049 -5.61365 -1.47151 
92 1 8.86201 -4.37402 -6.05642 -0.642704 
154 1 8.86201 -5.22192 -5.0835 1.11886 
283 2 -8.86201 -4.30712 -5.3377 0.597974 
306 2 -8.86201 -6.35027 -2.72402 -1.11928 
309 2 -8.86201 -3.09084 -5.69064 -0.205093 
316 2 -8.86201 -5.41006 -5.37299 -0.226353 
324 2 -8.86201 -5.19028 -2.38738 0.306232 
375 2 -8.86201 -3.05511 -3.32357 -0.223781 
392 2 -8.86201 -6.4096 -5.41356 1.46799 
38 1 8.86201 -2.42487 -4.27823 -0.85688 
161 1 8.86201 -4.02369 -2.71094 -0.105819 
218 2 -8.86201 0.335597 -6.03259 1.18664 
370 2 -8.86201 -1.33318 -3.41552 0.539204 
139 1 8.86201 1.33222 -5.53674 1.5764 
142 1 8.86201 -0.785878 -3.43689 1.33872 
144 1 8.86201 0.147238 -4.5269 -0.358038 
152 1 8.86201 -0.405916 -5.77038 0.529816 
166 1 8.86201 1.72739 -3.19342 1.28324 
176 1 8.86201 -0.667801 -4.93632 -1.45486 
251 2 -8.86201 -1.34631 -5.01146 -0.375009 
267 2 -8.86201 1.81021 -5.08433 -1.56752 
307 2 -8.86201 0.549143 -4.68601 -1.51036 
349 2 -8.86201 1.3352 -4.73967 -0.604398 
355 2 -8.86201 0.104941 -2.97081 0.553241 
365 2 -8.86201 1.33059 -2.19786 -1.3864 
374 2 -8.86201 -1.31181 -2.99568 -1.58039 
389 2 -8.86201 -1.86514 -6.14817 -1.47585 
319 2 -8.86201 -1.50801 -2.24682 1.30257 
41 1 8.86201 -0.184933 -3.54115 -1.44815 
202 1 8.86201 2.14454 -3.12134 -0.461982 
390 2 -8.86201 -1.54479 -2.36641 -0.806872 
323 2 -8.86201 5.96203 -6.09495 0.677563 
227 2 -8.86201 2.2335 -5.08359 0.527065 
326 2 -8.86201 3.06549 -3.65342 -0.055813 
105 1 8.86201 4.77805 -2.83561 0.55346 
118 1 8.86201 4.20923 -3.50969 -0.84931 
125 1 8.86201 5.8368 -3.80097 0.287375 
128 1 8.86201 4.65802 -4.02232 1.24955 
136 1 8.86201 5.5956 -4.70493 -1.37244 
141 1 8.86201 3.20167 -4.92804 0.383515 
145 1 8.86201 2.56744 -5.85276 -0.00618144 
147 1 8.86201 5.18612 -2.25711 -0.871427 
192 1 8.86201 3.1466 -3.6785 -1.35963 
293 2 -8.86201 4.9773 -4.37422 -0.0658531 
340 2 -8.86201 4.62544 -4.89701 -1.54486 
348 2 -8.86201 4.9238 -6.29032 -0.829378 
366 2 -8.86201 2.98953 -2.80632 0.977913 
357 2 -8.86201 6.3034 -2.29759 1.47668 
32 1 8.86201 8.32995 -6.24347 1.18834 
163 1 8.86201 9.99258 -5.53627 0.731958 
222 2 -8.86201 7.3381 -2.3957 -0.128588 
286 2 -8.86201 7.04289 -3.08528 -1.4993 
1 1 8.86201 10.0262 -3.67019 -0.640806 
36 1 8.86201 7.96819 -5.81759 -0.289328 
72 1 8.86201 10.284 -5.84062 -0.60087 
132 1 8.86201 8.05511 -4.42638 -0.86332 
164 1 8.86201 9.06131 -3.41045 0.0242827 
187 1 8.86201 7.32246 -3.86568 -0.136017 
245 2 -8.86201 7.62721 -5.34258 1.05835 
278 2 -8.86201 8.07807 -3.76588 1.47538 
304 2 -8.86201 8.70019 -3.60736 -1.16345 
332 2 -8.86201 9.07636 -5.10537 1.59187 
347 2 -8.86201 8.60319 -5.03325 0.289826 
385 2 -8.86201 10.3959 -4.69383 -1.08203 
4 1 8.86201 -6.4414 -0.300665 1.0781 
12 1 8.86201 -6.75554 0.124277 -0.000137043 
19 1 8.86201 -8.1727 -0.689383 -0.086411 
90 1 8.86201 -10.053 -1.1738 -1.33878 
110 1 8.86201 -8.89419 0.81321 0.822934 
130 1 8.86201 -8.4907 -0.674867 1.01719 
143 1 8.86201 -7.99893 1.41722 -1.02872 
167 1 8.86201 -7.74355 0.272165 1.53364 
275 2 -8.86201 -9.96074 0.244118 1.41262 
280 2 -8.86201 -9.6774 -0.858326 -0.018087 
339 2 -8.86201 -8.90775 -1.35986 -1.51065 
364 2 -8.86201 -7.86639 1.58934 0.284895 
368 2 -8.86201 -8.09354 0.445722 0.0432888 
418 2 -8.86201 -7.08795 -0.672334 -1.1926 
377 2 -8.86201 -6.46737 1.2387 -1.32949 
171 1 8.86201 -9.38705 1.62047 -1.59152 
350 2 -8.86201 -7.19173 2.0794 -1.53933 
387 2 -8.86201 -9.47968 0.822491 -0.749981 
396 2 -8.86201 -6.03423 -0.775483 -0.0539477 
207 1 8.86201 -3.43826 -1.50354 -1.2363 
233 2 -8.86201 -3.69934 -1.79137 1.46379 
56 1 8.86201 -2.77624 2.11196 0.795462 
91 1 8.86201 -4.55585 0.552345 -0.279658 
101 1 8.86201 -5.39381 0.0865297 -1.51454 
107 1 8.86201 -3.65637 -0.4414 0.251167 
115 1 8.86201 -5.26788 2.03422 -1.59319 
162 1 8.86201 -6.32305 0.796298 1.11037 
182 1 8.86201 -2.4291 -0.735248 -0.120371 
241 2 -8.86201 -4.44263 0.184544 1.28354 
244 2 -8.86201 -5.60306 -1.58291 1.19506 
254 2 -8.86201 -3.1433 -1.27296 0.705609 
259 2 -8.86201 -3.17458 -0.221761 -1.52981 
333 2 -8.86201 -4.44916 0.764704 -1.38046 
344 2 -8.86201 -4.43982 -1.58079 -0.948322 
361 2 -8.86201 -2.94801 0.512098 0.0567509 
268 2 -8.86201 -2.45985 -1.89234 -0.688107 
82 1 8.86201 -3.55096 1.19358 -0.919806 
42 1 8.86201 -1.90315 -1.46481 -1.58716 
290 2 -8.86201 -1.30767 0.831375 1.40023 
7 1 8.86201 0.429864 -0.0101841 -1.36642 
71 1 8.86201 -1.14192 -0.0672317 0.2375 
87 1 8.86201 0.631671 -0.281177 1.53097 
98 1 8.86201 0.286236 -0.63332 0.286161 
119 1 8.86201 -0.245854 0.137871 1.14818 
126 1 8.86201 0.990206 1.13705 1.51613 
127 1 8.86201 -1.12041 -1.9532 0.322603 
138 1 8.86201 -0.536552 -2.12648 -1.48026 
188 1 8.86201 -0.759503 1.21571 -0.996821 
248 2 -8.86201 -0.843998 -1.46456 -0.516313 
274 2 -8.86201 0.771129 -0.956544 -0.626505 
312 2 -8.86201 -1.13075 0.408368 -1.49715 
325 2 -8.86201 0.735509 -2.03472 -0.202545 
373 2 -8.86201 1.55105 -0.0533821 0.897191 
393 2 -8.86201 0.101516 1.41044 -0.456901 
421 2 -8.86201 1.4629 -0.163065 -1.45011 
83 1 8.86201 1.52196 -1.80479 1.28329 
104 1 8.86201 1.49821 -1.22736 -1.41957 
258 2 -8.86201 1.30769 0.911115 -1.56094 
26 1 8.86201 1.85613 2.12362 -0.118946 
185 1 8.86201 0.720651 2.01549 -1.48712 
193 1 8.86201 1.86419 1.00621 0.975513 
411 2 -8.86201 0.816912 1.95901 0.448462 
320 2 -8.86201 5.22076 -1.6334 -0.0255315 
58 1 8.86201 2.88152 -0.173473 0.237438 
47 1 8.86201 5.53506 0.130551 -1.38554 
49 1 8.86201 4.02293 0.634055 0.417035 
50 1 8.86201 4.63617 -2.089 1.35565 
52 1 8.86201 5.47465 -1.13998 0.920187 
106 1 8.86201 3.88471 1.13728 -0.936421 
121 1 8.86201 4.87327 -0.462335 0.0671889 
165 1 8.86201 6.3406 1.01688 -1.38583 
217 2 -8.86201 3.56304 -1.57889 0.560212 
220 2 -8.86201 5.26395 0.516508 0.401499 
223 2 -8.86201 6.40201 -1.0658 0.051951 
279 2 -8.86201 2.99354 0.987014 -0.092997 
284 2 -8.86201 2.83219 0.216959 1.40569 
292 2 -8.86201 5.71962 1.68211 0.694053 
314 2 -8.86201 4.97429 1.76667 -1.00266 
342 2 -8.86201 5.18231 -1.00656 -1.4388 
402 2 -8.86201 2.93288 -1.43997 -1.21152 
75 1 8.86201 6.12311 1.94914 -0.908985 
88 1 8.86201 6.14844 -0.219872 0.740972 
273 2 -8.86201 6.21224 0.256888 -0.193672 
420 2 -8.86201 6.78499 -0.472171 -1.51227 
77 1 8.86201 7.92662 0.0639206 1.58735 
89 1 8.86201 8.30403 0.37313 -0.972385 
155 1 8.86201 9.40424 -2.10888 -0.131273 
214 2 -8.86201 7.39203 -1.53359 1.1175 
224 2 -8.86201 9.39041 -0.288028 -1.32467 
236 2 -8.86201 7.30193 0.86755 -1.22093 
237 2 -8.86201 10.2632 0.583283 -1.51507 
240 2 -8.86201 8.42364 -1.83706 -1.45102 
358 2 -8.86201 8.18606 1.02881 1.2176 
381 2 -8.86201 9.56519 0.486204 -0.283267 
170 1 8.86201 10.1897 1.69538 -0.0635042 
181 1 8.86201 9.28309 1.65519 0.711726 
328 2 -8.86201 -8.58274 3.03617 1.14737 
22 1 8.86201 -9.49035 2.28039 1.02372 
55 1 8.86201 -7.07865 3.1211 -0.80808 
60 1 8.86201 -10.0503 5.47672 -0.742133 
66 1 8.86201 -10.6565 3.86056 -0.175934 
109 1 8.86201 -8.85729 6.06285 -1.58066 
140 1 8.86201 -7.64717 5.9912 -1.46719 
157 1 8.86201 -8.23938 2.40435 -0.647365 
195 1 8.86201 -9.47329 3.33172 -0.652784 
205 1 8.86201 -7.3596 5.07012 1.54985 
216 2 -8.86201 -7.64301 5.62144 -0.0056291 
250 2 -8.86201 -6.71813 4.7737 -1.56669 
298 2 -8.86201 -8.40023 3.77489 -1.14721 
388 2 -8.86201 -6.90548 4.67569 0.549127 
120 1 8.86201 -4.07857 2.20415 -1.46919 
249 2 -8.86201 -3.69261 2.54441 -0.54358 
331 2 -8.86201 -4.58769 2.37022 -0.00489738 
341 2 -8.86201 -2.46517 2.61698 -0.445525 
21 1 8.86201 -2.65616 3.72392 0.461167 
33 1 8.86201 -5.3774 3.87897 0.938021 
46 1 8.86201 -2.23829 5.51078 -0.488856 
70 1 8.86201 -3.09382 3.2442 -1.54754 
129 1 8.86201 -6.10407 2.18125 1.42766 
153 1 8.86201 -5.2302 5.79445 -1.10652 
159 1 8.86201 -2.8453 4.6283 0.167959 
175 1 8.86201 -5.0448 5.62271 0.652448 
210 1 8.86201 -4.65007 4.49107 -1.29716 
252 2 -8.86201 -5.99244 6.18357 0.351744 
257 2 -8.86201 -4.16841 5.50552 -1.25614 
276 2 -8.86201 -2.97695 3.87467 1.52773 
337 2 -8.86201 -2.15361 4.46046 -1.22056 
367 2 -8.86201 -6.40238 3.06869 0.201506 
416 2 -8.86201 -4.30363 3.56949 1.24968 
229 2 -8.86201 -2.43215 5.93791 -1.46794 
394 2 -8.86201 -3.38804 5.53865 0.199462 
204 1 8.86201 -1.65403 2.27007 0.143375 
20 1 8.86201 -1.65451 5.13724 0.769425 
23 1 8.86201 0.177791 3.81348 -1.50072 
69 1 8.86201 0.598551 5.48767 -0.0756399 
73 1 8.86201 -0.386438 4.28058 0.362207 
124 1 8.86201 -0.69874 2.71246 -0.252733 
137 1 8.86201 0.845267 2.81608 -0.477546 
234 2 -8.86201 -1.7271 3.7513 1.50595 
246 2 -8.86201 -1.05101 5.08635 -0.0546075 
263 2 -8.86201 -1.6733 3.46666 0.108473 
301 2 -8.86201 -0.939475 6.21267 1.27012 
335 2 -8.86201 1.86719 2.32317 -1.27569 
345 2 -8.86201 0.495298 5.8652 -1.23306 
401 2 -8.86201 1.46468 4.67014 -0.990181 
403 2 -8.86201 -1.05043 3.7486 -1.09521 
410 2 -8.86201 1.21822 4.74884 1.31894 
423 2 -8.86201 -0.128385 2.80593 -1.58359 
9 1 8.86201 1.73318 6.19879 1.39583 
354 2 -8.86201 1.66563 5.41983 0.318869 
156 1 8.86201 -0.732078 6.29918 -1.3367 
27 1 8.86201 2.25559 3.92051 1.577 
308 2 -8.86201 2.83325 4.27641 -1.12625 
2 1 8.86201 4.45101 5.12442 1.01277 
31 1 8.86201 2.75759 3.5426 -0.324418 
68 1 8.86201 6.06696 6.38661 -0.187967 
78 1 8.86201 4.87998 2.96385 0.0958395 
79 1 8.86201 3.40991 3.50593 -1.48773 
95 1 8.86201 4.06948 3.69247 1.34954 
178 1 8.86201 3.81744 4.16739 -0.693232 
225 2 -8.86201 4.78998 5.04134 -0.335907 
242 2 -8.86201 3.8207 5.39219 -1.5685 
287 2 -8.86201 4.66195 6.39196 0.219227 
362 2 -8.86201 3.96951 2.71441 -0.686303 
372 2 -8.86201 2.58086 2.77222 0.332776 
386 2 -8.86201 4.48482 3.39839 -1.24556 
398 2 -8.86201 6.25796 3.07764 0.434268 
37 1 8.86201 5.81171 2.74965 -1.54421 
150 1 8.86201 5.94116 4.4073 -0.741166 
221 2 -8.86201 5.53734 5.70707 -1.20077 
376 2 -8.86201 4.52232 6.40865 1.58316 
313 2 -8.86201 10.0881 5.08779 -1.25327 
80 1 8.86201 7.46504 4.48444 -1.44325 
81 1 8.86201 7.16458 5.9694 1.0752 
183 1 8.86201 8.3577 3.13586 -0.836407 
206 1 8.86201 9.29114 6.33057 1.44051 
247 2 -8.86201 9.54049 2.17904 -0.940396 
260 2 -8.86201 7.13595 3.49657 -0.728139 
294 2 -8.86201 8.98534 5.41699 0.4593 
295 2 -8.86201 7.25545 5.89187 -1.25692 
318 2 -8.86201 9.49422 2.88748 0.556564 
378 2 -8.86201 9.4373 3.54512 1.36122 
397 2 -8.86201 6.71487 4.91469 0.508366 
65 1 8.86201 8.80585 5.9532 -0.795713 
29 1 8.86201 -8.41747 7.46129 -0.316294 
44 1 8.86201 -6.52483 9.8815 0.218409 
74 1 8.86201 -8.18165 7.4177 1.22308 
76 1 8.86201 -9.36626 9.81437 -1.30471 
116 1 8.86201 -8.07981 10.492 -1.43395 
133 1 8.86201 -10.5918 8.53816 0.644374 
169 1 8.86201 -9.72344 6.76507 1.37362 
189 1 8.86201 -8.70579 10.4467 1.58195 
196 1 8.86201 -6.4423 7.13551 0.637703 
208 1 8.86201 -9.44034 7.77805 -1.26357 
269 2 -8.86201 -10.4682 10.0057 -1.28576 
352 2 -8.86201 -7.88738 7.33303 -1.39946 
380 2 -8.86201 -8.88065 9.79452 -0.244076 
285 2 -8.86201 -7.20623 8.15816 0.496453 
3 1 8.86201 -3.54174 6.72532 1.39808 
123 1 8.86201 -5.40159 6.91266 1.58788 
131 1 8.86201 -4.40469 7.797 -0.0149004 
13 1 8.86201 -4.25061 9.50166 0.551789 
190 1 8.86201 -4.10882 6.74577 -1.12222 
197 1 8.86201 -4.9181 9.14822 -0.505636 
232 2 -8.86201 -4.87282 8.42266 0.760097 
243 2 -8.86201 -3.63057 7.63778 -1.38149 
264 2 -8.86201 -2.57496 8.97445 0.462445 
265 2 -8.86201 -6.37814 7.79389 -0.843374 
296 2 -8.86201 -3.23791 7.23045 0.594695 
311 2 -8.86201 -5.88333 9.80666 -0.810756 
391 2 -8.86201 -3.60551 8.88022 1.10787 
419 2 -8.86201 -3.68893 9.39931 -0.455449 
57 1 8.86201 0.530942 10.689 -1.52191 
173 1 8.86201 1.79559 6.59318 -0.712325 
201 1 8.86201 0.188446 6.57594 0.172917 
6 1 8.86201 1.30962 8.9153 -0.697778 
64 1 8.86201 0.368055 7.04451 -0.809558 
86 1 8.86201 -1.13648 6.45052 0.184126 
114 1 8.86201 -2.005 7.10009 0.439029 
135 1 8.86201 -0.249329 8.37408 -0.864074 
239 2 -8.86201 1.22618 7.11577 0.0154955 
303 2 -8.86201 -0.488415 9.76103 -0.106384 
322 2 -8.86201 -0.148647 10.508 1.43094 
327 2 -8.86201 -0.598807 7.39311 -1.06205 
363 2 -8.86201 -1.66471 7.56641 -0.722979 
407 2 -8.86201 -1.23043 8.81785 -1.46332 
413 2 -8.86201 0.118014 9.44032 -1.09826 
404 2 -8.86201 1.25329 7.56389 -1.28064 
422 2 -8.86201 3.68101 10.3756 -1.36356 
96 1 8.86201 3.87654 6.71971 -1.31005 
97 1 8.86201 3.4786 8.31862 -0.629247 
179 1 8.86201 2.64739 7.22548 -1.46417 
203 1 8.86201 6.38562 7.05632 -1.32116 
209 1 8.86201 2.62524 7.05823 1.16809 
371 2 -8.86201 3.31779 8.82787 1.36765 
399 2 -8.86201 2.34148 9.19729 -1.38909 
415 2 -8.86201 4.66997 8.92968 0.79836 
103 1 8.86201 5.91414 9.44683 -1.2232 
160 1 8.86201 9.33449 6.79305 -0.656248 
48 1 8.86201 6.44248 9.80653 1.5874 
330 2 -8.86201 6.76177 10.0776 0.0261311 
168 1 8.86201 8.43475 9.98029 -0.149271 
186 1 8.86201 8.63486 8.55462 -0.513043 
191 1 8.86201 7.01088 8.17096 0.893133 
271 2 -8.86201 8.23845 8.87364 0.529789 
310 2 -8.86201 8.96339 7.36493 0.151537 
334 2 -8.86201 7.76066 7.09122 -0.552023 
409 2 -8.86201 7.38163 7.16297 1.17307 
ITEM: TIMESTEP
1100
ITEM: NUMBER OF ATOMS
424
ITEM: BOX BOUNDS pp pp ff
-1.0728100000000000e+01 1.0728100000000000e+01
-1.0728100000000000e+01 1.0728100000000000e+01
-2.1009400000000000e+00 2.1009400000000000e+00
ITEM: ATOMS id type q x y z 
10 1 8.86201 -7.84572 -7.87987 0.0220472 
149 1 8.86201 -9.34384 -6.33616 0.433065 
174 1 8.86201 -7.14934 -7.9209 -0.760133 
180 1 8.86201 -6.54456 -9.49898 1.00604 
194 1 8.86201 -10.0784 -6.92065 -1.17956 
199 1 8.86201 -8.00149 -10.0729 1.14149 
228 2 -8.86201 -10.5732 -6.67678 -0.247073 
282 2 -8.86201 -6.80408 -10.6363 1.61441 
288 2 -8.86201 -6.69706 -6.84661 -0.635048 
315 2 -8.86201 -7.43886 -9.83335 -1.18493 
338 2 -8.86201 -10.1041 -10.616 -0.645394 
346 2 -8.86201 -8.53509 -6.76238 -0.934699 
395 2 -8.86201 -8.04244 -9.43882 0.353474 
424 2 -8.86201 -6.61127 -8.75277 -1.44396 
8 1 8.86201 -3.85523 -8.071 0.420922 
30 1 8.86201 -2.75777 -6.89393 -1.40411 
51 1 8.86201 -6.4107 -10.7051 -0.517715 
61 1 8.86201 -3.89578 -8.99273 -0.76922 
108 1 8.86201 -4.00199 -7.2408 -1.01238 
117 1 8.86201 -3.33712 -8.73797 1.39639 
212 1 8.86201 -4.67499 -8.62567 1.20114 
238 2 -8.86201 -4.99506 -8.92894 -0.86452 
291 2 -8.86201 -5.15014 -10.0202 1.54459 
299 2 -8.86201 -3.31569 -10.0191 0.308871 
317 2 -8.86201 -3.73011 -10.2389 -1.31112 
360 2 -8.86201 -5.14153 -8.90279 0.175447 
383 2 -8.86201 -6.04107 -8.51642 0.931681 
412 2 -8.86201 -5.95064 -9.53787 -0.471527 
417 2 -8.86201 -3.82607 -7.82107 1.42733 
14 1 8.86201 -2.32531 -7.67289 1.17563 
343 2 -8.86201 -2.4347 -7.94496 -1.2363 
281 2 -8.86201 -2.7332 -7.37271 -0.239835 
213 2 -8.86201 -1.94237 -9.27567 -1.15435 
300 2 -8.86201 -0.501939 -9.7487 -1.58932 
18 1 8.86201 -0.983267 -7.95965 -0.877302 
53 1 8.86201 1.4201 -8.94593 -1.38717 
67 1 8.86201 0.727205 -9.86281 1.49725 
158 1 8.86201 -1.98868 -8.86198 0.200517 
172 1 8.86201 -0.685274 -6.71246 -1.06685 
177 1 8.86201 -0.616295 -9.34817 -0.283663 
235 2 -8.86201 0.742773 -7.75933 -1.59204 
289 2 -8.86201 1.22454 -9.56323 0.675651 
302 2 -8.86201 -0.27737 -10.3756 -0.367896 
336 2 -8.86201 2.00388 -8.90173 -0.571274 
356 2 -8.86201 -0.487209 -8.06769 0.195571 
406 2 -8.86201 -0.957647 -9.00831 1.30951 
54 1 8.86201 1.57322 -7.68336 0.248736 
99 1 8.86201 1.30634 -10.1048 -1.47044 
277 2 -8.86201 1.48544 -6.89434 1.56227 
382 2 -8.86201 1.61477 -7.91416 -1.058 
230 2 -8.86201 1.37302 -6.65097 -1.08732 
414 2 -8.86201 0.842485 -10.4977 -0.0590773 
59 1 8.86201 3.1811 -10.055 -1.49374 
266 2 -8.86201 2.67914 -7.10094 0.64355 
15 1 8.86201 4.307 -6.98895 1.25405 
28 1 8.86201 2.61927 -7.77515 -1.33937 
35 1 8.86201 3.36902 -8.7942 0.348407 
43 1 8.86201 5.82494 -7.33504 0.39475 
85 1 8.86201 4.96528 -8.34323 0.60447 
134 1 8.86201 5.43412 -10.2701 0.536322 
184 1 8.86201 3.79232 -7.93394 1.47697 
253 2 -8.86201 3.2064 -8.67464 -1.30657 
305 2 -8.86201 3.71625 -7.1814 0.363429 
329 2 -8.86201 4.45514 -7.4868 -0.386932 
353 2 -8.86201 4.85097 -7.97634 1.51 
359 2 -8.86201 5.3367 -9.45629 -0.316237 
369 2 -8.86201 5.67626 -7.38642 -1.51464 
148 1 8.86201 5.9284 -8.71381 -1.44767 
198 1 8.86201 3.30299 -6.89197 -1.55282 
200 1 8.86201 5.27745 -10.5026 -0.7365 
231 2 -8.86201 9.30533 -7.57346 -0.49079 
63 1 8.86201 7.27272 -9.6854 -1.13703 
256 2 -8.86201 6.51283 -9.21873 1.31653 
39 1 8.86201 6.43705 -10.1649 -0.382404 
100 1 8.86201 9.47165 -9.04608 -0.189903 
122 1 8.86201 8.52865 -7.79784 0.273993 
211 1 8.86201 6.44732 -8.00232 1.14374 
215 2 -8.86201 7.96302 -7.25607 -1.30058 
297 2 -8.86201 8.82725 -10.1203 -1.3948 
321 2 -8.86201 8.05496 -9.56865 -0.372478 
405 2 -8.86201 8.85565 -10.269 1.5149 
408 2 -8.86201 10.7152 -8.75291 -0.743065 
113 1 8.86201 6.94679 -6.67326 -1.3886 
379 2 -8.86201 6.87369 -6.80268 0.176269 
226 2 -8.86201 -7.35565 -6.26392 -0.00235748 
16 1 8.86201 -10.4719 -4.9317 0.103378 
24 1 8.86201 -7.06838 -4.5122 -1.1894 
45 1 8.86201 -7.76802 -5.77225 1.57689 
93 1 8.86201 -7.47878 -6.17756 -1.16938 
94 1 8.86201 -7.74126 -2.87368 1.28595 
102 1 8.86201 -8.58869 -2.66984 -0.763228 
111 1 8.86201 -9.62981 -3.96126 1.5828 
112 1 8.86201 -6.38802 -2.61244 1.52605 
146 1 8.86201 -9.50768 -2.73216 -0.244489 
151 1 8.86201 -7.3873 -4.48739 0.167185 
219 2 -8.86201 -8.66696 -5.24456 -0.0771373 
255 2 -8.86201 -8.82941 -5.68865 -1.40684 
261 2 -8.86201 -8.6128 -4.23343 1.33888 
262 2 -8.86201 -7.44754 -3.32144 -0.355085 
270 2 -8.86201 -9.82984 -5.8326 1.32119 
272 2 -8.86201 -9.99938 -5.63503 -0.549584 
384 2 -8.86201 -8.62367 -2.67449 0.387633 
400 2 -8.86201 -9.84037 -3.80391 -0.740525 
62 1 8.86201 -6.31494 -2.38224 -0.179294 
17 1 8.86201 -2.93359 -6.12954 0.944618 
351 2 -8.86201 -6.30723 -5.43146 -1.58415 
5 1 8.86201 -5.56261 -6.36052 -1.49994 
11 1 8.86201 -4.24921 -3.57137 -0.728573 
25 1 8.86201 -5.5828 -3.31611 -0.528834 
34 1 8.86201 -5.34176 -6.15611 1.50874 
40 1 8.86201 -3.35675 -2.79931 -1.48515 
84 1 8.86201 -2.81831 -5.71577 -1.58549 
92 1 8.86201 -4.51338 -6.23068 -0.61081 
154 1 8.86201 -5.13281 -5.14028 1.32368 
283 2 -8.86201 -4.47648 -5.34781 0.448781 
306 2 -8.86201 -6.36798 -2.70282 -1.11558 
309 2 -8.86201 -2.86577 -5.7345 -0.332714 
316 2 -8.86201 -5.47305 -5.42521 -0.209448 
324 2 -8.86201 -5.31581 -2.43585 0.287977 
375 2 -8.86201 -2.94916 -3.40158 -0.300129 
392 2 -8.86201 -6.54366 -5.45008 1.59168 
38 1 8.86201 -2.39185 -4.17388 -0.728964 
161 1 8.86201 -4.22257 -2.67255 0.0176741 
218 2 -8.86201 0.527388 -5.98295 1.03605 
370 2 -8.86201 -1.3949 -3.43735 0.436075 
139 1 8.86201 1.23697 -5.61306 1.54234 
142 1 8.86201 -0.671382 -3.39108 1.43303 
144 1 8.86201 0.0917165 -4.68398 -0.395119 
152 1 8.86201 -0.422241 -5.88992 0.558261 
166 1 8.86201 1.72824 -3.08797 1.44792 
176 1 8.86201 -0.689885 -4.83266 -1.47371 
251 2 -8.86201 -1.33761 -5.17167 -0.353955 
267 2 -8.86201 1.7137 -5.11322 -1.54751 
307 2 -8.86201 0.50811 -4.62129 -1.44858 
349 2 -8.86201 1.4597 -4.65929 -0.636015 
355 2 -8.86201 0.206945 -2.99069 0.59397 
365 2 -8.86201 1.287 -2.38441 -1.27788 
374 2 -8.86201 -1.31329 -3.0713 -1.52141 
389 2 -8.86201 -1.77063 -6.11168 -1.47191 
319 2 -8.86201 -1.44463 -2.27175 1.56472 
41 1 8.86201 -0.226072 -3.77099 -1.49486 
202 1 8.86201 2.13737 -3.23742 -0.578286 
390 2 -8.86201 -1.61892 -2.27805 -0.722086 
323 2 -8.86201 5.9116 -6.0316 0.767608 
227 2 -8.86201 2.20135 -5.0118 0.570063 
326 2 -8.86201 3.20447 -3.61738 -0.0183876 
105 1 8.86201 4.71768 -2.82255 0.339964 
118 1 8.86201 4.22293 -3.56727 -0.90141 
125 1 8.86201 5.86178 -3.56354 0.347801 
128 1 8.86201 4.70995 -4.30463 1.11863 
136 1 8.86201 5.67345 -4.77425 -1.31994 
141 1 8.86201 3.33325 -4.79823 0.373061 
145 1 8.86201 2.57265 -5.90475 -0.010263 
147 1 8.86201 5.28902 -2.2168 -0.927309 
192 1 8.86201 3.19016 -3.59495 -1.26707 
293 2 -8.86201 4.99494 -4.32714 0.0337277 
340 2 -8.86201 4.59771 -4.96785 -1.54627 
348 2 -8.86201 5.02396 -6.42925 -0.888356 
366 2 -8.86201 2.92247 -2.68263 1.0894 
357 2 -8.86201 6.46606 -2.4323 1.54505 
32 1 8.86201 8.41576 -6.2668 1.3063 
163 1 8.86201 9.87013 -5.45745 0.755081 
222 2 -8.86201 7.4196 -2.35447 -0.11977 
286 2 -8.86201 7.05493 -3.04672 -1.53806 
1 1 8.86201 10.1345 -3.52203 -0.741027 
36 1 8.86201 8.06911 -6.0218 -0.257011 
72 1 8.86201 10.2531 -5.7675 -0.509447 
132 1 8.86201 8.13175 -4.33814 -0.686833 
164 1 8.86201 9.00929 -3.44717 0.0544312 
187 1 8.86201 7.28445 -3.74757 0.0426335 
245 2 -8.86201 7.55593 -5.31455 0.863953 
278 2 -8.86201 8.13544 -3.89371 1.59433 
304 2 -8.86201 8.80988 -3.59919 -1.14284 
332 2 -8.86201 9.14074 -5.28354 1.50024 
347 2 -8.86201 8.66081 -5.16602 0.331688 
385 2 -8.86201 10.5187 -4.74059 -0.920006 
4 1 8.86201 -6.30765 -0.338931 1.19714 
12 1 8.86201 -6.6896 0.0776415 0.0558627 
19 1 8.86201 -8.16759 -0.811304 0.0198155 
90 1 8.86201 -10.2071 -1.18715 -1.17843 
110 1 8.86201 -8.75102 0.853847 0.892065 
130 1 8.86201 -8.53962 -0.780026 1.16981 
143 1 8.86201 -7.88239 1.3655 -1.01746 
167 1 8.86201 -7.77885 0.275902 1.32725 
275 2 -8.86201 -10.0141 0.311038 1.55953 
280 2 -8.86201 -9.74883 -0.748304 -0.00750177 
339 2 -8.86201 -9.096 -1.39848 -1.48819 
364 2 -8.86201 -8.01445 1.59224 0.450578 
368 2 -8.86201 -8.06063 0.54659 0.147444 
418 2 -8.86201 -7.07379 -0.672366 -1.13065 
377 2 -8.86201 -6.48226 1.1062 -1.29314 
171 1 8.86201 -9.47277 1.47525 -1.49233 
350 2 -8.86201 -7.16947 2.09911 -1.55613 
387 2 -8.86201 -9.40999 0.696887 -0.741993 
396 2 -8.86201 -5.89775 -0.582701 0.115001 
207 1 8.86201 -3.43829 -1.42409 -1.11733 
233 2 -8.86201 -3.82215 -1.71069 1.36098 
56 1 8.86201 -2.80778 2.17043 0.887198 
91 1 8.86201 -4.6708 0.480276 -0.257907 
101 1 8.86201 -5.27674 0.109394 -1.44719 
107 1 8.86201 -3.5254 -0.489509 0.302696 
115 1 8.86201 -5.37801 2.17553 -1.50842 
162 1 8.86201 -6.32347 0.837937 1.16783 
182 1 8.86201 -2.308 -0.78336 -0.156286 
241 2 -8.86201 -4.54188 0.151349 1.32167 
244 2 -8.86201 -5.64907 -1.55529 1.00725 
254 2 -8.86201 -3.08892 -1.22224 0.826371 
259 2 -8.86201 -3.08526 -0.0533524 -1.57907 
333 2 -8.86201 -4.60038 0.856158 -1.37042 
344 2 -8.86201 -4.44681 -1.76158 -0.836091 
361 2 -8.86201 -2.97545 0.620423 0.246212 
268 2 -8.86201 -2.54597 -1.7461 -0.523378 
82 1 8.86201 -3.49752 1.27173 -0.793668 
42 1 8.86201 -1.91552 -1.55602 -1.51142 
290 2 -8.86201 -1.14119 0.892706 1.45885 
7 1 8.86201 0.497758 -0.176394 -1.22353 
71 1 8.86201 -1.17365 -0.0427569 0.264191 
87 1 8.86201 0.690735 -0.384582 1.46428 
98 1 8.86201 0.268699 -0.636008 0.460793 
119 1 8.86201 -0.413227 0.16715 1.19791 
126 1 8.86201 0.961424 1.21962 1.35353 
127 1 8.86201 -1.19712 -2.06193 0.409338 
138 1 8.86201 -0.47138 -2.15545 -1.35862 
188 1 8.86201 -0.681096 1.30207 -1.01907 
248 2 -8.86201 -0.753746 -1.51363 -0.44435 
274 2 -8.86201 0.797211 -1.05464 -0.493667 
312 2 -8.86201 -1.25503 0.461893 -1.51464 
325 2 -8.86201 0.656131 -2.1638 -0.0926567 
373 2 -8.86201 1.56939 -0.179084 1.03144 
393 2 -8.86201 0.274432 1.41082 -0.195819 
421 2 -8.86201 1.58236 -0.143635 -1.50338 
83 1 8.86201 1.43002 -1.92084 1.46462 
104 1 8.86201 1.38707 -1.15906 -1.37699 
258 2 -8.86201 1.23593 0.909601 -1.55105 
26 1 8.86201 1.72261 2.17398 -0.013874 
185 1 8.86201 0.676662 1.97592 -1.50607 
193 1 8.86201 2.04087 0.797275 1.08417 
411 2 -8.86201 0.949518 1.78537 0.531484 
320 2 -8.86201 5.28152 -1.60665 0.0637221 
58 1 8.86201 3.03724 -0.184274 0.247853 
47 1 8.86201 5.77738 0.199833 -1.33912 
49 1 8.86201 3.97431 0.585656 0.5018 
50 1 8.86201 4.69708 -2.17557 1.17055 
52 1 8.86201 5.40489 -1.15756 1.04659 
106 1 8.86201 3.89792 1.11833 -1.00148 
121 1 8.86201 5.0607 -0.486002 0.0852123 
165 1 8.86201 6.23198 1.1786 -1.46121 
217 2 -8.86201 3.6446 -1.50454 0.61784 
220 2 -8.86201 5.26744 0.444677 0.449707 
223 2 -8.86201 6.37643 -1.01974 0.138682 
279 2 -8.86201 2.98344 0.811831 0.122908 
284 2 -8.86201 2.8619 0.123364 1.5847 
292 2 -8.86201 5.70496 1.72739 0.870109 
314 2 -8.86201 4.98676 1.74299 -0.850706 
342 2 -8.86201 5.27301 -1.14018 -1.37238 
402 2 -8.86201 3.03819 -1.44849 -1.24469 
75 1 8.86201 6.1528 2.06413 -0.868825 
88 1 8.86201 6.24411 -0.112911 0.842154 
273 2 -8.86201 6.0322 0.252071 -0.301716 
420 2 -8.86201 6.79834 -0.414283 -1.52643 
77 1 8.86201 7.8072 -0.0144416 1.52153 
89 1 8.86201 8.34181 0.380665 -1.01854 
155 1 8.86201 9.416 -2.21817 -0.0744286 
214 2 -8.86201 7.39095 -1.46798 0.940356 
224 2 -8.86201 9.43094 -0.189432 -1.24321 
236 2 -8.86201 7.34057 0.874832 -1.04826 
237 2 -8.86201 10.4246 0.654486 -1.42762 
240 2 -8.86201 8.56789 -1.88891 -1.39988 
358 2 -8.86201 8.38173 0.982319 1.31057 
381 2 -8.86201 9.74874 0.440833 -0.182784 
170 1 8.86201 10.0007 1.48158 -0.0666628 
181 1 8.86201 9.42822 1.58122 0.735617 
328 2 -8.86201 -8.68084 3.14592 1.18411 
22 1 8.86201 -9.49475 2.26767 1.14359 
55 1 8.86201 -6.95962 3.07402 -0.640509 
60 1 8.86201 -10.1005 5.49274 -0.770832 
66 1 8.86201 10.6621 3.81999 -0.0905346 
109 1 8.86201 -8.95471 6.19303 -1.50887 
140 1 8.86201 -7.69589 6.02863 -1.36112 
157 1 8.86201 -8.28152 2.2937 -0.72034 
195 1 8.86201 -9.56311 3.24268 -0.659889 
205 1 8.86201 -7.46024 5.01006 1.5684 
216 2 -8.86201 -7.66075 5.56654 0.0194916 
250 2 -8.86201 -6.54683 4.59741 -1.49276 
298 2 -8.86201 -8.61608 3.69795 -1.25422 
388 2 -8.86201 -6.93102 4.80881 0.707186 
120 1 8.86201 -4.23574 2.11399 -1.49105 