ITEM: TIMESTEP
1000
ITEM: NUMBER OF ATOMS
424
ITEM: BOX BOUNDS pp pp ff
-1.0728100000000000e+01 1.0728100000000000e+01
-1.0728100000000000e+01 1.0728100000000000e+01
-2.1008399999999998e+00 2.1008399999999998e+00
ITEM: ATOMS id type q x y z 
10 1 8.86201 -7.78655 -7.89337 -0.00989558 
149 1 8.86201 -9.34928 -6.52696 0.465498 
174 1 8.86201 -7.05859 -8.10418 -0.748473 
180 1 8.86201 -6.69718 -9.42878 0.84719 
194 1 8.86201 -9.89163 -6.85138 -1.22979 
199 1 8.86201 -8.13649 -10.0639 1.0978 
228 2 -8.86201 -10.5174 -6.65029 -0.337117 
282 2 -8.86201 -6.80356 -10.6474 1.45473 
288 2 -8.86201 -6.70918 -6.79002 -0.789446 
315 2 -8.86201 -7.49743 -9.86027 -1.22164 
338 2 -8.86201 -10.0665 -10.4778 -0.705413 
346 2 -8.86201 -8.33035 -6.8235 -0.974925 
395 2 -8.86201 -8.04875 -9.32055 0.113253 
424 2 -8.86201 -6.81568 -8.77353 -1.39695 
8 1 8.86201 -3.89612 -8.06471 0.30051 
30 1 8.86201 -2.75188 -6.70029 -1.39097 
51 1 8.86201 -6.30425 -10.6531 -0.494735 
61 1 8.86201 -3.93486 -8.8777 -0.954714 
108 1 8.86201 -4.16077 -7.19651 -1.12188 
117 1 8.86201 -3.18625 -8.7306 1.29664 
212 1 8.86201 -4.70573 -8.49006 1.01787 
238 2 -8.86201 -4.92921 -8.84898 -0.848955 
291 2 -8.86201 -5.0862 -9.9868 1.4259 
299 2 -8.86201 -3.29096 -9.65454 0.440303 
317 2 -8.86201 -3.7476 -10.1884 -1.42584 
360 2 -8.86201 -5.24175 -8.83487 0.156632 
383 2 -8.86201 -5.84556 -8.65943 0.947531 
412 2 -8.86201 -5.96539 -9.62839 -0.604529 
417 2 -8.86201 -3.77389 -7.86801 1.61625 
14 1 8.86201 -2.3463 -7.72443 1.04616 
343 2 -8.86201 -2.28395 -8.04862 -1.1786 
281 2 -8.86201 -2.55766 -7.30659 -0.0956896 
213 2 -8.86201 -2.077 -9.32914 -1.07267 
300 2 -8.86201 -0.564908 -9.83049 -1.51938 
18 1 8.86201 -1.00357 -7.94698 -0.867296 
53 1 8.86201 1.39606 -8.98773 -1.43015 
67 1 8.86201 0.513322 -10.0185 1.59525 
158 1 8.86201 -1.84957 -8.929 0.138491 
172 1 8.86201 -0.83523 -6.75897 -1.18978 
177 1 8.86201 -0.514176 -9.23124 -0.37436 
235 2 -8.86201 0.667651 -7.72478 -1.47256 
289 2 -8.86201 1.27282 -9.39003 0.598648 
302 2 -8.86201 -0.214919 -10.2845 -0.601731 
336 2 -8.86201 1.96537 -8.68614 -0.521638 
356 2 -8.86201 -0.450324 -8.04456 0.140938 
406 2 -8.86201 -1.07161 -8.9085 1.43619 
54 1 8.86201 1.69347 -7.76676 0.287466 
99 1 8.86201 1.35088 -9.97242 -1.27555 
277 2 -8.86201 1.58807 -7.01076 1.41306 
382 2 -8.86201 1.71526 -7.71286 -1.07279 
230 2 -8.86201 1.35287 -6.73315 -1.07296 
414 2 -8.86201 0.826862 -10.5632 -0.235091 
59 1 8.86201 3.08615 -10.0533 -1.49102 
266 2 -8.86201 2.4981 -6.99829 0.53333 
15 1 8.86201 4.24697 -6.92073 1.11038 
28 1 8.86201 2.74371 -7.78831 -1.31543 
35 1 8.86201 3.32079 -8.84701 0.25092 
43 1 8.86201 5.74016 -7.37392 0.248176 
85 1 8.86201 4.88091 -8.31811 0.45682 
134 1 8.86201 5.48648 -10.1891 0.395785 
184 1 8.86201 3.76705 -7.94017 1.32175 
253 2 -8.86201 3.33983 -8.68569 -1.37507 
305 2 -8.86201 3.67906 -7.2293 0.235451 
329 2 -8.86201 4.50179 -7.49914 -0.354029 
353 2 -8.86201 5.03504 -7.92578 1.59557 
359 2 -8.86201 5.31156 -9.47635 -0.434119 
369 2 -8.86201 5.60025 -7.37904 -1.54641 
148 1 8.86201 6.15089 -8.66317 -1.43381 
198 1 8.86201 3.40083 -6.95203 -1.44053 
200 1 8.86201 5.23127 -10.6896 -0.890601 
231 2 -8.86201 9.54966 -7.40864 -0.616867 
63 1 8.86201 7.11468 -9.64063 -1.24198 
256 2 -8.86201 6.47277 -9.05474 1.4439 
39 1 8.86201 6.51639 -10.2753 -0.418577 
100 1 8.86201 9.29604 -9.00232 -0.184889 
122 1 8.86201 8.44195 -7.81845 0.249373 
211 1 8.86201 6.505 -8.03758 1.04989 
215 2 -8.86201 8.01344 -7.40391 -1.38408 
297 2 -8.86201 8.83115 -10.0866 -1.46667 
321 2 -8.86201 7.97502 -9.54485 -0.26586 
405 2 -8.86201 8.88131 -10.2057 1.34089 
408 2 -8.86201 10.5717 -8.73334 -0.652116 
113 1 8.86201 6.97312 -6.62806 -1.44657 
379 2 -8.86201 6.87124 -6.65063 0.115598 
226 2 -8.86201 -7.34905 -6.3115 -0.0321301 
16 1 8.86201 -10.3785 -4.86719 -0.0401898 
24 1 8.86201 -7.25966 -4.50994 -1.21026 
45 1 8.86201 -7.76147 -5.62116 1.36256 
93 1 8.86201 -7.51178 -6.12542 -1.13503 
94 1 8.86201 -7.75962 -2.89707 1.11986 
102 1 8.86201 -8.58487 -2.55173 -0.907513 
111 1 8.86201 -9.50132 -3.9359 1.52972 
112 1 8.86201 -6.47921 -2.63637 1.58512 
146 1 8.86201 -9.49675 -2.81075 -0.328392 
151 1 8.86201 -7.30487 -4.41194 0.0842648 
219 2 -8.86201 -8.69469 -5.2505 -0.146689 
255 2 -8.86201 -8.86012 -5.73664 -1.43624 
261 2 -8.86201 -8.51701 -4.17889 1.08843 
262 2 -8.86201 -7.34122 -3.31646 -0.339658 
270 2 -8.86201 -9.76993 -5.78823 1.48508 
272 2 -8.86201 -10.0425 -5.61202 -0.843336 
384 2 -8.86201 -8.62867 -2.67473 0.268271 
400 2 -8.86201 -9.86302 -3.87698 -0.854187 
62 1 8.86201 -6.47382 -2.46469 -0.0240604 
17 1 8.86201 -2.97376 -6.29783 0.853254 
351 2 -8.86201 -6.41765 -5.51438 -1.51477 
5 1 8.86201 -5.5068 -6.31419 -1.49672 
11 1 8.86201 -4.42404 -3.649 -0.855445 
25 1 8.86201 -5.5368 -3.25293 -0.483053 
34 1 8.86201 -5.29576 -6.1487 1.33382 
40 1 8.86201 -3.34558 -2.77152 -1.59422 
84 1 8.86201 -2.79914 -5.61233 -1.47255 
92 1 8.86201 -4.37408 -6.05638 -0.64292 
154 1 8.86201 -5.22186 -5.08333 1.11902 
283 2 -8.86201 -4.30714 -5.33739 0.597876 
306 2 -8.86201 -6.35008 -2.72417 -1.11898 
309 2 -8.86201 -3.09069 -5.69101 -0.204828 
316 2 -8.86201 -5.41002 -5.3729 -0.226475 
324 2 -8.86201 -5.19077 -2.38752 0.306871 
375 2 -8.86201 -3.05545 -3.32363 -0.223953 
392 2 -8.86201 -6.40961 -5.41354 1.46797 
38 1 8.86201 -2.42628 -4.27918 -0.853504 
161 1 8.86201 -4.02349 -2.71062 -0.105738 
218 2 -8.86201 0.335703 -6.03264 1.18657 
370 2 -8.86201 -1.33338 -3.41507 0.539101 
139 1 8.86201 1.3321 -5.53693 1.57626 
142 1 8.86201 -0.785895 -3.43698 1.3384 
144 1 8.86201 0.147178 -4.52701 -0.358108 
152 1 8.86201 -0.405102 -5.77125 0.529814 
166 1 8.86201 1.72731 -3.19341 1.2832 
176 1 8.86201 -0.667852 -4.93627 -1.45472 
251 2 -8.86201 -1.34493 -5.01275 -0.37428 
267 2 -8.86201 1.81016 -5.08412 -1.56745 
307 2 -8.86201 0.549117 -4.68603 -1.51014 
349 2 -8.86201 1.33515 -4.73964 -0.604266 
355 2 -8.86201 0.10488 -2.97069 0.553324 
365 2 -8.86201 1.3306 -2.19755 -1.38617 
374 2 -8.86201 -1.31243 -2.99577 -1.58016 
389 2 -8.86201 -1.86492 -6.14833 -1.47561 
319 2 -8.86201 -1.50818 -2.24679 1.30296 
41 1 8.86201 -0.185656 -3.54139 -1.44825 
202 1 8.86201 2.14514 -3.12081 -0.462198 
390 2 -8.86201 -1.54473 -2.36492 -0.808998 
323 2 -8.86201 5.9621 -6.09497 0.677416 
227 2 -8.86201 2.23356 -5.08326 0.527188 
326 2 -8.86201 3.06519 -3.65324 -0.0559403 
105 1 8.86201 4.77812 -2.83556 0.553204 
118 1 8.86201 4.20928 -3.50973 -0.849283 
125 1 8.86201 5.83702 -3.80095 0.28746 
128 1 8.86201 4.65793 -4.02238 1.24945 
136 1 8.86201 5.59555 -4.70492 -1.37261 
141 1 8.86201 3.20171 -4.92812 0.383544 
145 1 8.86201 2.56748 -5.85252 -0.00582521 
147 1 8.86201 5.18602 -2.25741 -0.871632 
192 1 8.86201 3.14657 -3.67858 -1.35914 
293 2 -8.86201 4.97742 -4.37431 -0.0658297 
340 2 -8.86201 4.6253 -4.89698 -1.54457 
348 2 -8.86201 4.92381 -6.29021 -0.82942 
366 2 -8.86201 2.98957 -2.80633 0.977946 
357 2 -8.86201 6.30342 -2.29773 1.47674 
32 1 8.86201 8.33003 -6.24354 1.18842 
163 1 8.86201 9.99265 -5.53633 0.731881 
222 2 -8.86201 7.33797 -2.39574 -0.128555 
286 2 -8.86201 7.04253 -3.0847 -1.49924 
1 1 8.86201 10.0264 -3.67099 -0.640033 
36 1 8.86201 7.96824 -5.81832 -0.288385 
72 1 8.86201 10.2852 -5.84003 -0.599235 
132 1 8.86201 8.05583 -4.42681 -0.86385 
164 1 8.86201 9.06073 -3.41024 0.0240919 
187 1 8.86201 7.32135 -3.86559 -0.137246 
245 2 -8.86201 7.62725 -5.34259 1.05814 
278 2 -8.86201 8.07803 -3.76595 1.4755 
304 2 -8.86201 8.70062 -3.6054 -1.16016 
332 2 -8.86201 9.07642 -5.10541 1.59176 
347 2 -8.86201 8.60339 -5.03336 0.290071 
385 2 -8.86201 10.3963 -4.69338 -1.08132 
4 1 8.86201 -6.44094 -0.300902 1.07756 
12 1 8.86201 -6.75515 0.125169 -0.000175842 
19 1 8.86201 -8.17216 -0.688452 -0.0867002 
90 1 8.86201 -10.0529 -1.17395 -1.33878 
110 1 8.86201 -8.89421 0.813194 0.822867 
130 1 8.86201 -8.49022 -0.67464 1.01708 
143 1 8.86201 -7.99887 1.41726 -1.02908 
167 1 8.86201 -7.74354 0.271258 1.53246 
275 2 -8.86201 -9.96069 0.244024 1.41276 
280 2 -8.86201 -9.6775 -0.858226 -0.0183257 
339 2 -8.86201 -8.90697 -1.36036 -1.5103 
364 2 -8.86201 -7.86602 1.58979 0.285117 
368 2 -8.86201 -8.09473 0.44632 0.0438946 
418 2 -8.86201 -7.08849 -0.674263 -1.18827 
377 2 -8.86201 -6.46748 1.23881 -1.32943 
171 1 8.86201 -9.3877 1.62085 -1.59135 
350 2 -8.86201 -7.19182 2.07938 -1.53929 
387 2 -8.86201 -9.47958 0.822679 -0.750154 
396 2 -8.86201 -6.03356 -0.77552 -0.0536154 
207 1 8.86201 -3.43908 -1.50319 -1.23672 
233 2 -8.86201 -3.69932 -1.79148 1.46359 
56 1 8.86201 -2.77618 2.11192 0.795488 
91 1 8.86201 -4.55605 0.552036 -0.279597 
101 1 8.86201 -5.3939 0.0867591 -1.51333 
107 1 8.86201 -3.65634 -0.441391 0.251051 
115 1 8.86201 -5.26782 2.03421 -1.59311 
162 1 8.86201 -6.32308 0.796119 1.11026 
182 1 8.86201 -2.42904 -0.735494 -0.120446 
241 2 -8.86201 -4.44252 0.184726 1.28366 
244 2 -8.86201 -5.60308 -1.58282 1.19481 
254 2 -8.86201 -3.14364 -1.27291 0.705561 
259 2 -8.86201 -3.17434 -0.221479 -1.52964 
333 2 -8.86201 -4.44875 0.764611 -1.37994 
344 2 -8.86201 -4.43988 -1.58026 -0.947558 
361 2 -8.86201 -2.94805 0.512051 0.0567527 
268 2 -8.86201 -2.46041 -1.89212 -0.687277 
82 1 8.86201 -3.55113 1.194 -0.919621 
42 1 8.86201 -1.90426 -1.46493 -1.58735 
290 2 -8.86201 -1.30771 0.831509 1.40034 
7 1 8.86201 0.429952 -0.00988977 -1.36598 
71 1 8.86201 -1.14198 -0.0673172 0.237378 
87 1 8.86201 0.631766 -0.28102 1.53088 
98 1 8.86201 0.287112 -0.632679 0.286183 
119 1 8.86201 -0.245893 0.137802 1.1482 
126 1 8.86201 0.990207 1.13704 1.51616 
127 1 8.86201 -1.12073 -1.95493 0.321851 
138 1 8.86201 -0.536111 -2.1263 -1.47986 
188 1 8.86201 -0.758978 1.21574 -0.997214 
248 2 -8.86201 -0.844003 -1.46477 -0.516308 
274 2 -8.86201 0.771035 -0.956624 -0.626411 
312 2 -8.86201 -1.13053 0.408087 -1.49723 
325 2 -8.86201 0.735444 -2.0347 -0.202568 
373 2 -8.86201 1.55103 -0.0534765 0.897216 
393 2 -8.86201 0.101115 1.40977 -0.455899 
421 2 -8.86201 1.46309 -0.162545 -1.45002 
83 1 8.86201 1.52142 -1.80439 1.284 
104 1 8.86201 1.49795 -1.22728 -1.4194 
258 2 -8.86201 1.30762 0.911549 -1.5612 
26 1 8.86201 1.85643 2.12341 -0.118789 
185 1 8.86201 0.720613 2.01507 -1.48678 
193 1 8.86201 1.86419 1.00641 0.975303 
411 2 -8.86201 0.816614 1.96001 0.448206 
320 2 -8.86201 5.22088 -1.63449 -0.0247797 
58 1 8.86201 2.8816 -0.17362 0.237505 
47 1 8.86201 5.53518 0.132818 -1.38526 
49 1 8.86201 4.02276 0.6338 0.417692 
50 1 8.86201 4.63623 -2.08909 1.35552 
52 1 8.86201 5.4744 -1.13981 0.919812 
106 1 8.86201 3.88501 1.1374 -0.936293 
121 1 8.86201 4.8732 -0.462668 0.0669856 
165 1 8.86201 6.34055 1.01686 -1.38585 
217 2 -8.86201 3.56331 -1.57922 0.561442 
220 2 -8.86201 5.26384 0.516601 0.40128 
223 2 -8.86201 6.40207 -1.06578 0.0519636 
279 2 -8.86201 2.99323 0.986146 -0.0935731 
284 2 -8.86201 2.83209 0.216933 1.40562 
292 2 -8.86201 5.71921 1.6824 0.694322 
314 2 -8.86201 4.97455 1.76686 -1.00272 
342 2 -8.86201 5.18253 -1.00666 -1.43993 
402 2 -8.86201 2.93249 -1.44189 -1.21212 
75 1 8.86201 6.12346 1.94899 -0.908941 
88 1 8.86201 6.14858 -0.219855 0.741026 
273 2 -8.86201 6.2123 0.256915 -0.193655 
420 2 -8.86201 6.78496 -0.472036 -1.5124 
77 1 8.86201 7.92654 0.0638756 1.58725 
89 1 8.86201 8.30426 0.373177 -0.972173 
155 1 8.86201 9.4042 -2.10908 -0.131151 
214 2 -8.86201 7.39198 -1.53352 1.11726 
224 2 -8.86201 9.39041 -0.287899 -1.32457 
236 2 -8.86201 7.30184 0.867554 -1.22089 
237 2 -8.86201 10.2631 0.583353 -1.51488 
240 2 -8.86201 8.42373 -1.83709 -1.45073 
358 2 -8.86201 8.18605 1.02881 1.21753 
381 2 -8.86201 9.5651 0.486125 -0.283331 
170 1 8.86201 10.1897 1.69546 -0.0633077 
181 1 8.86201 9.28295 1.6552 0.711719 
328 2 -8.86201 -8.58265 3.03626 1.14737 
22 1 8.86201 -9.49039 2.28033 1.02379 
55 1 8.86201 -7.07887 3.12094 -0.807611 
60 1 8.86201 -10.0504 5.47664 -0.742023 
66 1 8.86201 -10.6564 3.86052 -0.176039 
109 1 8.86201 -8.85739 6.06291 -1.58047 
140 1 8.86201 -7.64724 5.99116 -1.46679 
157 1 8.86201 -8.23944 2.40435 -0.647167 
195 1 8.86201 -9.47329 3.33171 -0.652756 
205 1 8.86201 -7.35947 5.07025 1.54991 
216 2 -8.86201 -7.64238 5.6219 -0.00605545 
250 2 -8.86201 -6.71809 4.77378 -1.56644 
298 2 -8.86201 -8.40017 3.77467 -1.14718 
388 2 -8.86201 -6.9056 4.67558 0.549095 
120 1 8.86201 -4.07907 2.20425 -1.46951 
249 2 -8.86201 -3.69263 2.54403 -0.543889 
331 2 -8.86201 -4.58779 2.3702 -0.00486623 
341 2 -8.86201 -2.46602 2.61784 -0.444366 
21 1 8.86201 -2.65623 3.72376 0.461439 
33 1 8.86201 -5.3773 3.87903 0.937945 
46 1 8.86201 -2.238 5.51022 -0.488516 
70 1 8.86201 -3.09339 3.2443 -1.54767 
129 1 8.86201 -6.10404 2.18116 1.42769 
153 1 8.86201 -5.23021 5.79471 -1.10662 
159 1 8.86201 -2.84532 4.6282 0.168203 
175 1 8.86201 -5.04484 5.62277 0.652334 
210 1 8.86201 -4.65028 4.49101 -1.2969 
252 2 -8.86201 -5.99246 6.18345 0.351594 
257 2 -8.86201 -4.16838 5.50542 -1.25612 
276 2 -8.86201 -2.97711 3.87478 1.52828 
337 2 -8.86201 -2.15356 4.46 -1.22097 
367 2 -8.86201 -6.40235 3.06867 0.201532 
416 2 -8.86201 -4.30362 3.56937 1.24974 
229 2 -8.86201 -2.43227 5.93827 -1.46721 
394 2 -8.86201 -3.38785 5.53815 0.199347 
204 1 8.86201 -1.65399 2.27003 0.143292 
20 1 8.86201 -1.6549 5.1373 0.769733 
23 1 8.86201 0.17794 3.81379 -1.49969 
69 1 8.86201 0.597252 5.48743 -0.0764278 
73 1 8.86201 -0.385685 4.27985 0.364326 
124 1 8.86201 -0.69871 2.71252 -0.253035 
137 1 8.86201 0.846181 2.81546 -0.477476 
234 2 -8.86201 -1.7271 3.7513 1.50576 
246 2 -8.86201 -1.0507 5.08675 -0.0539161 
263 2 -8.86201 -1.67396 3.46771 0.10822 
301 2 -8.86201 -0.939581 6.21228 1.26977 
335 2 -8.86201 1.8668 2.32349 -1.27522 
345 2 -8.86201 0.494095 5.86424 -1.23099 
401 2 -8.86201 1.46468 4.67 -0.990134 
403 2 -8.86201 -1.04995 3.74892 -1.09571 
410 2 -8.86201 1.21806 4.74881 1.31904 
423 2 -8.86201 -0.128701 2.80563 -1.58302 
9 1 8.86201 1.73324 6.19878 1.39581 
354 2 -8.86201 1.6656 5.41977 0.318916 
156 1 8.86201 -0.73152 6.29889 -1.33615 
27 1 8.86201 2.25571 3.92047 1.57681 
308 2 -8.86201 2.83308 4.27635 -1.12614 
2 1 8.86201 4.45107 5.12424 1.01264 
31 1 8.86201 2.75814 3.54278 -0.324223 
68 1 8.86201 6.0667 6.38652 -0.187519 
78 1 8.86201 4.87984 2.96389 0.0958207 
79 1 8.86201 3.40987 3.5061 -1.48769 
95 1 8.86201 4.06956 3.69255 1.34974 
178 1 8.86201 3.81675 4.16667 -0.692316 
225 2 -8.86201 4.7905 5.04228 -0.333962 
242 2 -8.86201 3.8209 5.39229 -1.56811 
287 2 -8.86201 4.66181 6.39229 0.219491 
362 2 -8.86201 3.96962 2.71447 -0.686195 
372 2 -8.86201 2.5809 2.77232 0.332691 
386 2 -8.86201 4.48469 3.39888 -1.24514 
398 2 -8.86201 6.25786 3.07754 0.434144 
37 1 8.86201 5.81181 2.74959 -1.54401 
150 1 8.86201 5.94103 4.4073 -0.741117 
221 2 -8.86201 5.53759 5.70641 -1.20065 
376 2 -8.86201 4.52236 6.40868 1.58321 
313 2 -8.86201 10.088 5.08795 -1.2533 
80 1 8.86201 7.46513 4.4841 -1.44303 
81 1 8.86201 7.16456 5.9693 1.07523 
183 1 8.86201 8.35798 3.13544 -0.835993 
206 1 8.86201 9.29133 6.33016 1.44039 
247 2 -8.86201 9.54047 2.17916 -0.94018 
260 2 -8.86201 7.13591 3.49669 -0.728065 
294 2 -8.86201 8.98525 5.41727 0.458938 
295 2 -8.86201 7.25471 5.89175 -1.25775 
318 2 -8.86201 9.49422 2.88753 0.556567 
378 2 -8.86201 9.43751 3.54529 1.36122 
397 2 -8.86201 6.71492 4.91467 0.50839 
65 1 8.86201 8.80547 5.95356 -0.795199 
29 1 8.86201 -8.41693 7.46124 -0.316483 
44 1 8.86201 -6.52468 9.88182 0.218405 
74 1 8.86201 -8.18171 7.41761 1.22317 
76 1 8.86201 -9.36651 9.81457 -1.30476 
116 1 8.86201 -8.07958 10.4917 -1.43377 
133 1 8.86201 -10.5919 8.53813 0.644519 
169 1 8.86201 -9.72336 6.76511 1.37369 
189 1 8.86201 -8.70581 10.4467 1.58179 
196 1 8.86201 -6.44246 7.13559 0.638716 
208 1 8.86201 -9.44039 7.77835 -1.26356 
269 2 -8.86201 -10.4682 10.0056 -1.28565 
352 2 -8.86201 -7.88769 7.33276 -1.39941 
380 2 -8.86201 -8.88054 9.79445 -0.243924 
285 2 -8.86201 -7.20631 8.15798 0.496294 
3 1 8.86201 -3.54179 6.7252 1.39804 
123 1 8.86201 -5.40158 6.91246 1.58771 
131 1 8.86201 -4.40377 7.79728 -0.014509 
13 1 8.86201 -4.25097 9.50148 0.551906 
190 1 8.86201 -4.10875 6.74569 -1.12192 
197 1 8.86201 -4.91804 9.1483 -0.505492 
232 2 -8.86201 -4.87283 8.42272 0.760083 
243 2 -8.86201 -3.63083 7.63812 -1.38128 
264 2 -8.86201 -2.57493 8.97444 0.462574 
265 2 -8.86201 -6.37812 7.79377 -0.843347 
296 2 -8.86201 -3.2382 7.2299 0.594711 
311 2 -8.86201 -5.88329 9.80665 -0.8107 
391 2 -8.86201 -3.60549 8.8802 1.10779 
419 2 -8.86201 -3.68882 9.39933 -0.455661 
57 1 8.86201 0.530764 10.6889 -1.52204 
173 1 8.86201 1.79629 6.59374 -0.711933 
201 1 8.86201 0.189189 6.57716 0.173138 
6 1 8.86201 1.30955 8.91527 -0.697878 
64 1 8.86201 0.367794 7.04472 -0.809444 
86 1 8.86201 -1.13605 6.45015 0.18397 
114 1 8.86201 -2.00513 7.1001 0.439217 
135 1 8.86201 -0.249326 8.37394 -0.864195 
239 2 -8.86201 1.22599 7.11589 0.015568 
303 2 -8.86201 -0.488429 9.76081 -0.106205 
322 2 -8.86201 -0.148597 10.508 1.43104 
327 2 -8.86201 -0.598894 7.39313 -1.06215 
363 2 -8.86201 -1.66474 7.5662 -0.723244 
407 2 -8.86201 -1.23048 8.81782 -1.46316 
413 2 -8.86201 0.118072 9.44046 -1.09825 
404 2 -8.86201 1.25319 7.56406 -1.28066 
422 2 -8.86201 3.68114 10.3755 -1.36346 
96 1 8.86201 3.87679 6.71936 -1.31011 
97 1 8.86201 3.47855 8.31858 -0.629187 
179 1 8.86201 2.64748 7.22525 -1.46393 
203 1 8.86201 6.38572 7.05637 -1.32115 
209 1 8.86201 2.62519 7.05821 1.16807 
371 2 -8.86201 3.31782 8.82786 1.36743 
399 2 -8.86201 2.34159 9.19733 -1.3891 
415 2 -8.86201 4.67004 8.92967 0.798261 
103 1 8.86201 5.91405 9.44698 -1.22306 
160 1 8.86201 9.33462 6.79285 -0.656143 
48 1 8.86201 6.44237 9.8065 1.58728 
330 2 -8.86201 6.76184 10.0775 0.0259862 
168 1 8.86201 8.43467 9.9803 -0.149225 
186 1 8.86201 8.63454 8.55484 -0.513128 
191 1 8.86201 7.01096 8.17095 0.893182 
271 2 -8.86201 8.23845 8.8739 0.529484 
310 2 -8.86201 8.9637 7.36502 0.151496 
334 2 -8.86201 7.76111 7.09118 -0.551974 
409 2 -8.86201 7.38197 7.1632 1.17368 
ITEM: TIMESTEP
1100
ITEM: NUMBER OF ATOMS
424
ITEM: BOX BOUNDS pp pp ff
-1.0728100000000000e+01 1.0728100000000000e+01
-1.0728100000000000e+01 1.0728100000000000e+01
-2.1008399999999998e+00 2.1008399999999998e+00
ITEM: ATOMS id type q x y z 
10 1 8.86201 -7.84592 -7.87969 0.0218927 
149 1 8.86201 -9.34378 -6.33624 0.432818 
174 1 8.86201 -7.14902 -7.92053 -0.759937 
180 1 8.86201 -6.54621 -9.49601 1.00911 
194 1 8.86201 -10.0789 -6.92125 -1.18027 
199 1 8.86201 -8.00145 -10.0732 1.14153 
228 2 -8.86201 -10.5717 -6.67841 -0.24651 
282 2 -8.86201 -6.8043 -10.6367 1.61406 
288 2 -8.86201 -6.69725 -6.84734 -0.634651 
315 2 -8.86201 -7.44031 -9.83412 -1.18532 
338 2 -8.86201 -10.1042 -10.616 -0.645393 
346 2 -8.86201 -8.53468 -6.76233 -0.93484 
395 2 -8.86201 -8.03959 -9.44102 0.3549 
424 2 -8.86201 -6.61196 -8.75354 -1.44372 
8 1 8.86201 -3.85524 -8.07101 0.420826 
30 1 8.86201 -2.75857 -6.89183 -1.404 
51 1 8.86201 -6.41069 -10.7049 -0.517958 
61 1 8.86201 -3.8958 -8.99293 -0.768847 
108 1 8.86201 -4.00221 -7.24078 -1.01225 
117 1 8.86201 -3.33672 -8.73792 1.39655 
212 1 8.86201 -4.67489 -8.62543 1.20128 
238 2 -8.86201 -4.99508 -8.92909 -0.864749 
291 2 -8.86201 -5.15013 -10.0202 1.54471 
299 2 -8.86201 -3.3162 -10.0192 0.30891 
317 2 -8.86201 -3.73001 -10.2389 -1.31089 
360 2 -8.86201 -5.14143 -8.90269 0.1754 
383 2 -8.86201 -6.04105 -8.51627 0.931898 
412 2 -8.86201 -5.95056 -9.5379 -0.471461 
417 2 -8.86201 -3.826 -7.82105 1.42718 
14 1 8.86201 -2.32534 -7.6727 1.17586 
343 2 -8.86201 -2.4347 -7.94485 -1.23645 
281 2 -8.86201 -2.73317 -7.37301 -0.23975 
213 2 -8.86201 -1.94243 -9.27555 -1.15422 
300 2 -8.86201 -0.501863 -9.7486 -1.58934 
18 1 8.86201 -0.983299 -7.96 -0.877388 
53 1 8.86201 1.42001 -8.94651 -1.38708 
67 1 8.86201 0.726978 -9.86278 1.497 
158 1 8.86201 -1.98882 -8.86208 0.200537 
172 1 8.86201 -0.685257 -6.71227 -1.0669 
177 1 8.86201 -0.616396 -9.34826 -0.283662 
235 2 -8.86201 0.742585 -7.75903 -1.59211 
289 2 -8.86201 1.22447 -9.56317 0.67569 
302 2 -8.86201 -0.277267 -10.3756 -0.367821 
336 2 -8.86201 2.0039 -8.90139 -0.571202 
356 2 -8.86201 -0.48699 -8.06763 0.195492 
406 2 -8.86201 -0.957557 -9.0081 1.30944 
54 1 8.86201 1.57353 -7.68325 0.249007 
99 1 8.86201 1.30622 -10.1047 -1.47085 
277 2 -8.86201 1.48548 -6.89408 1.56205 
382 2 -8.86201 1.61471 -7.91446 -1.05858 
230 2 -8.86201 1.37342 -6.65115 -1.08733 
414 2 -8.86201 0.842226 -10.4973 -0.0586604 
59 1 8.86201 3.18144 -10.0548 -1.49475 
266 2 -8.86201 2.6792 -7.10107 0.643444 
15 1 8.86201 4.30703 -6.98887 1.25405 
28 1 8.86201 2.6191 -7.77512 -1.33935 
35 1 8.86201 3.36901 -8.79412 0.348371 
43 1 8.86201 5.82447 -7.3343 0.394497 
85 1 8.86201 4.96539 -8.34383 0.604658 
134 1 8.86201 5.43423 -10.2702 0.53673 
184 1 8.86201 3.79245 -7.93404 1.47724 
253 2 -8.86201 3.20645 -8.67476 -1.30637 
305 2 -8.86201 3.71574 -7.18131 0.363665 
329 2 -8.86201 4.45552 -7.48607 -0.386187 
353 2 -8.86201 4.85111 -7.97632 1.50991 
359 2 -8.86201 5.33677 -9.45643 -0.316358 
369 2 -8.86201 5.67626 -7.387 -1.51456 
148 1 8.86201 5.92842 -8.71352 -1.4477 
198 1 8.86201 3.30337 -6.89207 -1.5533 
200 1 8.86201 5.2774 -10.5026 -0.736368 
231 2 -8.86201 9.30504 -7.57365 -0.491082 
63 1 8.86201 7.2728 -9.68556 -1.13688 
256 2 -8.86201 6.51306 -9.21911 1.31656 
39 1 8.86201 6.43697 -10.165 -0.382332 
100 1 8.86201 9.47155 -9.04617 -0.18982 
122 1 8.86201 8.52867 -7.79789 0.273945 
211 1 8.86201 6.44703 -8.00224 1.1438 
215 2 -8.86201 7.96289 -7.256 -1.30033 
297 2 -8.86201 8.82716 -10.1203 -1.39459 
321 2 -8.86201 8.05499 -9.56865 -0.372515 
405 2 -8.86201 8.85567 -10.269 1.51486 
408 2 -8.86201 10.7153 -8.75282 -0.743004 
113 1 8.86201 6.94658 -6.67344 -1.38841 
379 2 -8.86201 6.87364 -6.80296 0.176407 
226 2 -8.86201 -7.35568 -6.26388 -0.00234902 
16 1 8.86201 -10.4719 -4.93169 0.103672 
24 1 8.86201 -7.06936 -4.51178 -1.18938 
45 1 8.86201 -7.7683 -5.77242 1.57663 
93 1 8.86201 -7.47809 -6.17748 -1.1694 
94 1 8.86201 -7.74175 -2.87289 1.28649 
102 1 8.86201 -8.58974 -2.66977 -0.762888 
111 1 8.86201 -9.62925 -3.9615 1.58265 
112 1 8.86201 -6.38814 -2.61257 1.52584 
146 1 8.86201 -9.50853 -2.73222 -0.243848 
151 1 8.86201 -7.38739 -4.48705 0.167493 
219 2 -8.86201 -8.66695 -5.24446 -0.0767933 
255 2 -8.86201 -8.82911 -5.68869 -1.40616 
261 2 -8.86201 -8.61199 -4.23367 1.33913 
262 2 -8.86201 -7.44732 -3.32105 -0.355054 
270 2 -8.86201 -9.82996 -5.83255 1.3209 
272 2 -8.86201 -10.0018 -5.63523 -0.549106 
384 2 -8.86201 -8.62308 -2.67424 0.38635 
400 2 -8.86201 -9.84036 -3.80372 -0.740382 
62 1 8.86201 -6.31462 -2.38183 -0.179281 
17 1 8.86201 -2.93374 -6.12961 0.944772 
351 2 -8.86201 -6.30747 -5.43133 -1.58405 
5 1 8.86201 -5.56285 -6.36055 -1.4999 
11 1 8.86201 -4.24924 -3.57158 -0.728404 
25 1 8.86201 -5.58288 -3.31597 -0.528971 
34 1 8.86201 -5.34168 -6.15602 1.50872 
40 1 8.86201 -3.35485 -2.79945 -1.48539 
84 1 8.86201 -2.81656 -5.71499 -1.5865 
92 1 8.86201 -4.51346 -6.23059 -0.611144 
154 1 8.86201 -5.13272 -5.14019 1.32386 
283 2 -8.86201 -4.47652 -5.34738 0.448703 
306 2 -8.86201 -6.36771 -2.70316 -1.11566 
309 2 -8.86201 -2.86559 -5.73497 -0.332319 
316 2 -8.86201 -5.473 -5.42512 -0.209598 
324 2 -8.86201 -5.31641 -2.43603 0.28875 
375 2 -8.86201 -2.94964 -3.40171 -0.300388 
392 2 -8.86201 -6.54368 -5.45006 1.59161 
38 1 8.86201 -2.39374 -4.17546 -0.724782 
161 1 8.86201 -4.22225 -2.6721 0.0177906 
218 2 -8.86201 0.527759 -5.98338 1.03647 
370 2 -8.86201 -1.39515 -3.43667 0.436053 
139 1 8.86201 1.2372 -5.61311 1.54258 
142 1 8.86201 -0.671384 -3.39131 1.43256 
144 1 8.86201 0.0916772 -4.68413 -0.395207 
152 1 8.86201 -0.421962 -5.89069 0.557537 
166 1 8.86201 1.72815 -3.08796 1.44786 
176 1 8.86201 -0.689946 -4.83261 -1.47353 
251 2 -8.86201 -1.33603 -5.17309 -0.353134 
267 2 -8.86201 1.71366 -5.113 -1.54732 
307 2 -8.86201 0.508084 -4.62133 -1.44835 
349 2 -8.86201 1.45961 -4.65923 -0.635822 
355 2 -8.86201 0.20684 -2.99054 0.594062 
365 2 -8.86201 1.28714 -2.38388 -1.27762 
374 2 -8.86201 -1.31378 -3.07176 -1.52162 
389 2 -8.86201 -1.76975 -6.11192 -1.47165 
319 2 -8.86201 -1.44483 -2.27152 1.56518 
41 1 8.86201 -0.227254 -3.77128 -1.49501 
202 1 8.86201 2.1382 -3.23694 -0.578491 
390 2 -8.86201 -1.61894 -2.27537 -0.725696 
323 2 -8.86201 5.91172 -6.03162 0.767384 
227 2 -8.86201 2.20121 -5.01132 0.570276 
326 2 -8.86201 3.20398 -3.61702 -0.018577 
105 1 8.86201 4.71779 -2.82245 0.339675 
118 1 8.86201 4.22298 -3.56731 -0.901369 
125 1 8.86201 5.86206 -3.56353 0.347937 
128 1 8.86201 4.70982 -4.30468 1.11856 
136 1 8.86201 5.67338 -4.77426 -1.32023 
141 1 8.86201 3.33352 -4.79836 0.373047 
145 1 8.86201 2.57269 -5.90452 -0.00979548 
147 1 8.86201 5.28889 -2.21706 -0.92753 
192 1 8.86201 3.19012 -3.59507 -1.26651 
293 2 -8.86201 4.99506 -4.32725 0.0337104 
340 2 -8.86201 4.59754 -4.9678 -1.54608 
348 2 -8.86201 5.02398 -6.42911 -0.888414 
366 2 -8.86201 2.92252 -2.68266 1.08943 
357 2 -8.86201 6.46606 -2.43247 1.54514 
32 1 8.86201 8.41582 -6.26686 1.30641 
163 1 8.86201 9.8702 -5.45752 0.755021 
222 2 -8.86201 7.4194 -2.35451 -0.119743 
286 2 -8.86201 7.0545 -3.04606 -1.53804 
1 1 8.86201 10.1348 -3.52311 -0.740234 
36 1 8.86201 8.06914 -6.02266 -0.255875 
72 1 8.86201 10.2544 -5.76656 -0.507688 
132 1 8.86201 8.13308 -4.33828 -0.687747 
164 1 8.86201 9.00845 -3.4468 0.054159 
187 1 8.86201 7.28313 -3.74735 0.0411527 
245 2 -8.86201 7.55598 -5.3146 0.863726 
278 2 -8.86201 8.13539 -3.89378 1.59434 
304 2 -8.86201 8.81006 -3.59746 -1.13886 
332 2 -8.86201 9.14081 -5.28358 1.49993 
347 2 -8.86201 8.66111 -5.16616 0.331971 
385 2 -8.86201 10.5191 -4.73997 -0.919074 
4 1 8.86201 -6.30708 -0.33914 1.19647 
12 1 8.86201 -6.68892 0.0783951 0.0558301 
19 1 8.86201 -8.16671 -0.810274 0.0192781 
90 1 8.86201 -10.2071 -1.18733 -1.17847 
110 1 8.86201 -8.75116 0.8539 0.89212 
130 1 8.86201 -8.53903 -0.779757 1.16966 
143 1 8.86201 -7.88231 1.36568 -1.01787 
167 1 8.86201 -7.77884 0.274843 1.3259 
275 2 -8.86201 -10.0141 0.310921 1.55969 
280 2 -8.86201 -9.74898 -0.7482 -0.00780679 
339 2 -8.86201 -9.09499 -1.39899 -1.48777 
364 2 -8.86201 -8.01398 1.59273 0.450811 
368 2 -8.86201 -8.06211 0.54726 0.148042 
418 2 -8.86201 -7.07457 -0.674503 -1.12565 
377 2 -8.86201 -6.48244 1.10634 -1.29308 
171 1 8.86201 -9.47362 1.47572 -1.49205 
350 2 -8.86201 -7.16954 2.09907 -1.55603 
387 2 -8.86201 -9.40985 0.697138 -0.74224 
396 2 -8.86201 -5.89716 -0.582546 0.115365 
207 1 8.86201 -3.43889 -1.42354 -1.11837 
233 2 -8.86201 -3.82224 -1.71099 1.36096 
56 1 8.86201 -2.8077 2.17039 0.887224 
91 1 8.86201 -4.67106 0.479847 -0.25748 
101 1 8.86201 -5.27682 0.10968 -1.44584 
107 1 8.86201 -3.52543 -0.489312 0.302442 
115 1 8.86201 -5.37793 2.17552 -1.50829 
162 1 8.86201 -6.32356 0.837623 1.16773 
182 1 8.86201 -2.3079 -0.783707 -0.156343 
241 2 -8.86201 -4.54175 0.151562 1.32181 
244 2 -8.86201 -5.64909 -1.55517 1.007 
254 2 -8.86201 -3.08914 -1.22217 0.826205 
259 2 -8.86201 -3.08498 -0.0528982 -1.57899 
333 2 -8.86201 -4.59985 0.855988 -1.37012 
344 2 -8.86201 -4.44739 -1.76093 -0.834987 
361 2 -8.86201 -2.97551 0.620391 0.24619 
268 2 -8.86201 -2.54627 -1.74626 -0.522139 
82 1 8.86201 -3.49777 1.27232 -0.793516 
42 1 8.86201 -1.91707 -1.55628 -1.51098 
290 2 -8.86201 -1.14124 0.892858 1.45897 
7 1 8.86201 0.498013 -0.176072 -1.22304 
71 1 8.86201 -1.17372 -0.0428853 0.264036 
87 1 8.86201 0.690739 -0.384369 1.46423 
98 1 8.86201 0.269785 -0.635176 0.460777 
119 1 8.86201 -0.413285 0.167016 1.19798 
126 1 8.86201 0.961555 1.2196 1.35345 
127 1 8.86201 -1.19747 -2.0644 0.407901 
138 1 8.86201 -0.470888 -2.1552 -1.35823 
188 1 8.86201 -0.680191 1.30205 -1.01996 
248 2 -8.86201 -0.753702 -1.51384 -0.443881 
274 2 -8.86201 0.796934 -1.05484 -0.4935 
312 2 -8.86201 -1.2546 0.461804 -1.51456 
325 2 -8.86201 0.656052 -2.16376 -0.0926929 
373 2 -8.86201 1.56947 -0.179027 1.03145 
393 2 -8.86201 0.273486 1.40977 -0.194421 
421 2 -8.86201 1.5825 -0.143534 -1.5032 
83 1 8.86201 1.42942 -1.92039 1.46543 
104 1 8.86201 1.38662 -1.15843 -1.377 
258 2 -8.86201 1.23579 0.910199 -1.55054 
26 1 8.86201 1.72309 2.1736 -0.0136735 
185 1 8.86201 0.676685 1.97544 -1.50568 
193 1 8.86201 2.04071 0.797425 1.08395 
411 2 -8.86201 0.949123 1.78663 0.531231 
320 2 -8.86201 5.28166 -1.60827 0.0643557 
58 1 8.86201 3.03733 -0.184613 0.247996 
47 1 8.86201 5.77721 0.202337 -1.33862 
49 1 8.86201 3.97409 0.585337 0.50258 
50 1 8.86201 4.69713 -2.17568 1.17043 
52 1 8.86201 5.40461 -1.15709 1.04629 
106 1 8.86201 3.89834 1.11854 -1.00132 
121 1 8.86201 5.0607 -0.486113 0.085079 
165 1 8.86201 6.23192 1.17853 -1.46138 
217 2 -8.86201 3.64494 -1.50489 0.61921 
220 2 -8.86201 5.26722 0.444585 0.449329 
223 2 -8.86201 6.37649 -1.01972 0.138658 
279 2 -8.86201 2.983 0.810931 0.122114 
284 2 -8.86201 2.86178 0.123338 1.58459 
292 2 -8.86201 5.70443 1.72772 0.870414 
314 2 -8.86201 4.98706 1.74321 -0.850824 
342 2 -8.86201 5.2734 -1.14035 -1.37393 
402 2 -8.86201 3.03784 -1.45082 -1.24541 
75 1 8.86201 6.15321 2.06416 -0.868724 
88 1 8.86201 6.2443 -0.112952 0.842295 
273 2 -8.86201 6.03227 0.252125 -0.301705 
420 2 -8.86201 6.79832 -0.414128 -1.52661 
77 1 8.86201 7.80712 -0.0145196 1.52143 
89 1 8.86201 8.34214 0.380701 -1.01823 
155 1 8.86201 9.41593 -2.21841 -0.0743167 
214 2 -8.86201 7.39088 -1.4679 0.940119 
224 2 -8.86201 9.43094 -0.189289 -1.24312 
236 2 -8.86201 7.34052 0.874858 -1.04828 
237 2 -8.86201 10.4246 0.654567 -1.42744 
240 2 -8.86201 8.56799 -1.88893 -1.39958 
358 2 -8.86201 8.38171 0.982344 1.31047 
381 2 -8.86201 9.74862 0.44073 -0.182871 
170 1 8.86201 10.0008 1.4817 -0.0664495 
181 1 8.86201 9.42804 1.58121 0.735625 
328 2 -8.86201 -8.68075 3.14604 1.18412 
22 1 8.86201 -9.49479 2.26759 1.14366 
55 1 8.86201 -6.95996 3.07386 -0.639977 
60 1 8.86201 -10.1006 5.49264 -0.770695 
66 1 8.86201 10.6622 3.81995 -0.090651 
109 1 8.86201 -8.95482 6.19309 -1.5085 
140 1 8.86201 -7.69597 6.02858 -1.36067 
157 1 8.86201 -8.28157 2.29353 -0.720116 
195 1 8.86201 -9.56311 3.24267 -0.659848 
205 1 8.86201 -7.46009 5.01022 1.56817 
216 2 -8.86201 -7.66 5.56708 0.018982 
250 2 -8.86201 -6.5468 4.59751 -1.49247 
298 2 -8.86201 -8.61594 3.69763 -1.25423 
388 2 -8.86201 -6.93116 4.80866 0.707117 
120 1 8.86201 -4.23645 2.11407 -1.49172 