ITEM: TIMESTEP
1000
ITEM: NUMBER OF ATOMS
424
ITEM: BOX BOUNDS pp pp ff
-1.0728100000000000e+01 1.0728100000000000e+01
-1.0728100000000000e+01 1.0728100000000000e+01
-2.1008399999999998e+00 2.1008399999999998e+00
ITEM: ATOMS id type q x y z 
3 1 8.86201 -10.3318 -10.2294 0.561087 
6 1 8.86201 -10.4238 -10.4484 -0.617448 
16 1 8.86201 -10.5043 -8.25308 1.5726 
85 1 8.86201 -8.64022 -10.3187 -1.53905 
87 1 8.86201 -8.83541 -10.6597 0.270507 
88 1 8.86201 -9.6327 -9.90158 1.4108 
89 1 8.86201 -10.0416 -9.48201 -1.49208 
90 1 8.86201 -9.32969 -9.86856 -0.628932 
91 1 8.86201 -9.10366 -9.39718 0.522877 
92 1 8.86201 -8.40548 -9.74417 1.48648 
94 1 8.86201 -8.56107 -9.03656 -0.484642 
95 1 8.86201 -8.95671 -8.09513 0.797825 
96 1 8.86201 -9.4217 -8.64871 1.45434 
97 1 8.86201 -9.39982 -7.46072 -1.4644 
98 1 8.86201 -8.69745 -7.86705 -0.335867 
99 1 8.86201 -9.6967 -7.26482 0.305323 
100 1 8.86201 -9.26668 -7.55881 1.56855 
169 1 8.86201 -7.6205 -10.6826 -1.52824 
171 1 8.86201 -7.78072 -10.7167 0.332685 
172 1 8.86201 -7.72266 -10.6922 1.51071 
173 1 8.86201 -8.42693 -9.2985 -1.5838 
174 1 8.86201 -7.52132 -9.97478 -0.739758 
175 1 8.86201 -7.8095 -9.56506 0.210516 
176 1 8.86201 -6.62904 -9.31488 1.52888 
177 1 8.86201 -9.48438 -8.64302 -1.55654 
178 1 8.86201 -7.51212 -8.83415 -0.575718 
179 1 8.86201 -7.78584 -8.35561 0.425531 
180 1 8.86201 -7.62906 -9.0192 1.57871 
181 1 8.86201 -7.03171 -7.17795 -1.44535 
182 1 8.86201 -7.34173 -7.63289 -0.601315 
183 1 8.86201 -7.85358 -7.2802 0.556118 
184 1 8.86201 -8.12714 -7.89669 1.5332 
253 2 -8.86201 -6.74513 -10.17 -1.59461 
256 2 -8.86201 -6.71493 -10.5295 1.57693 
257 2 -8.86201 -7.42908 -9.18398 -1.57743 
258 2 -8.86201 -6.64818 -9.33446 -0.946704 
259 2 -8.86201 -7.0259 -9.9927 0.690178 
261 2 -8.86201 -8.395 -8.09072 -1.41885 
262 2 -8.86201 -6.51985 -8.33514 -0.386505 
263 2 -8.86201 -6.9788 -9.00842 0.533692 
264 2 -8.86201 -7.02463 -8.04686 1.39426 
267 2 -8.86201 -6.87902 -7.63693 0.321239 
268 2 -8.86201 -7.3665 -7.01582 1.48928 
345 2 -8.86201 -6.99909 -8.20918 -1.50631 
102 1 8.86201 -9.19543 -6.53029 -0.422946 
186 1 8.86201 -8.40263 -7.13739 -1.1207 
187 1 8.86201 -6.74307 -6.61332 0.533119 
188 1 8.86201 -8.48047 -6.8313 1.55053 
270 2 -8.86201 -7.39553 -6.61647 -0.6238 
254 2 -8.86201 -6.15137 -10.1624 -0.465679 
260 2 -8.86201 -5.65907 -9.5796 1.22382 
265 2 -8.86201 -6.27195 -6.50222 -1.56384 
266 2 -8.86201 -6.42546 -7.29467 -0.566138 
337 2 -8.86201 -5.6438 -9.9856 -1.54298 
338 2 -8.86201 -4.54168 -10.0806 -0.678008 
339 2 -8.86201 -5.93433 -10.5585 0.506284 
340 2 -8.86201 -5.20062 -10.4893 1.50826 
341 2 -8.86201 -6.06368 -8.67501 -1.50877 
342 2 -8.86201 -5.03548 -8.94722 -0.771985 
343 2 -8.86201 -5.98025 -9.33552 0.158391 
344 2 -8.86201 -4.05841 -8.99932 1.48745 
346 2 -8.86201 -5.53378 -7.93564 -0.707583 
347 2 -8.86201 -4.76238 -8.29855 0.0969048 
348 2 -8.86201 -5.69843 -8.43189 1.4254 
349 2 -8.86201 -5.20924 -7.12683 -1.46936 
350 2 -8.86201 -4.73298 -7.16402 -0.0532212 
351 2 -8.86201 -3.90405 -7.27002 1.57382 
352 2 -8.86201 -6.08727 -7.35367 1.52636 
422 2 -8.86201 -3.33849 -9.80077 -0.689273 
423 2 -8.86201 -3.44244 -9.38913 0.556374 
271 2 -8.86201 -5.85422 -7.18989 0.534775 
424 2 -8.86201 -1.99342 -9.33041 1.48743 
5 1 8.86201 9.9871 -9.54096 -1.57742 
7 1 8.86201 8.8174 -9.51019 0.66642 
8 1 8.86201 10.1308 -10.4558 1.51889 
9 1 8.86201 8.85346 -8.2593 -1.48488 
10 1 8.86201 9.6518 -9.10556 -0.26357 
11 1 8.86201 9.90603 -7.95139 0.784601 
12 1 8.86201 10.5066 -9.42743 1.57984 
13 1 8.86201 10.6738 -6.98515 -1.56206 
14 1 8.86201 9.82401 -8.06332 -0.729473 
15 1 8.86201 7.7336 -6.77582 1.10519 
93 1 8.86201 10.7279 -8.12209 -1.54383 
18 1 8.86201 8.26206 -6.96444 -0.660744 
19 1 8.86201 -10.3318 -6.37109 1.0334 
24 1 8.86201 -10.2694 -5.25965 1.56857 
29 1 8.86201 -10.432 -3.00404 -1.56314 
103 1 8.86201 -7.69828 -6.20405 0.222099 
104 1 8.86201 -9.43732 -6.21946 1.52056 
105 1 8.86201 -8.90317 -5.06898 -1.56779 
106 1 8.86201 -9.74606 -5.46272 -0.657932 
107 1 8.86201 -9.15971 -5.00884 0.999934 
108 1 8.86201 -8.5205 -5.567 1.57903 
109 1 8.86201 -9.22086 -4.02896 -1.51229 
110 1 8.86201 -8.1721 -4.65175 -0.574793 
112 1 8.86201 -9.34639 -3.76178 1.54119 
113 1 8.86201 -8.18805 -3.05389 -1.55251 
114 1 8.86201 -9.72567 -3.63464 -0.617886 
115 1 8.86201 -8.03558 -2.78677 0.256749 
116 1 8.86201 -8.85804 -2.44918 1.5127 
118 1 8.86201 -9.00644 -2.62545 -0.660065 
185 1 8.86201 -9.03192 -6.24235 -1.54145 
189 1 8.86201 -7.9296 -4.96188 -1.55121 
190 1 8.86201 -8.40043 -5.91966 -0.612664 
191 1 8.86201 -8.19439 -5.12779 0.584716 
192 1 8.86201 -7.36559 -4.82243 1.55142 
193 1 8.86201 -7.71042 -3.95668 -1.43785 
194 1 8.86201 -7.27201 -4.46274 -0.292885 
195 1 8.86201 -8.69022 -4.02301 0.495404 
196 1 8.86201 -7.86076 -3.67818 1.56899 
197 1 8.86201 -6.947 -3.0122 -1.51584 
198 1 8.86201 -7.93012 -3.4817 -0.502982 
199 1 8.86201 -6.90477 -3.42647 0.203096 
200 1 8.86201 -7.16479 -2.86266 1.07746 
202 1 8.86201 -7.27927 -2.72588 -0.506024 
203 1 8.86201 -6.52718 -2.31715 0.356649 
269 2 -8.86201 -7.93112 -6.21472 -1.4708 
272 2 -8.86201 -7.57198 -5.99063 1.41874 
273 2 -8.86201 -6.9093 -5.51631 -1.40352 
274 2 -8.86201 -7.51879 -5.39969 -0.415456 
275 2 -8.86201 -7.1605 -5.36839 0.625541 
277 2 -8.86201 -6.79674 -4.42788 -1.52445 
279 2 -8.86201 -7.66402 -4.22205 0.625285 
280 2 -8.86201 -6.70363 -4.01033 1.41883 
282 2 -8.86201 -6.58874 -3.65577 -0.724728 
354 2 -8.86201 -6.47919 -6.02581 -0.580452 
363 2 -8.86201 -6.44734 -4.55634 0.436278 
276 2 -8.86201 -6.32821 -5.09998 1.51214 
278 2 -8.86201 -6.33952 -4.93796 -0.666725 
281 2 -8.86201 -5.89079 -3.47203 -1.5496 
283 2 -8.86201 -5.87691 -3.3069 0.406373 
284 2 -8.86201 -6.26043 -3.07529 1.53602 
286 2 -8.86201 -6.1276 -2.68274 -0.538726 
288 2 -8.86201 -5.52201 -2.24802 1.50032 
353 2 -8.86201 -4.63099 -6.15097 -1.56752 
355 2 -8.86201 -4.08283 -6.11885 0.922496 
356 2 -8.86201 -6.30051 -6.20423 1.46948 
357 2 -8.86201 -5.80646 -5.55739 -1.54702 
358 2 -8.86201 -4.41142 -4.66412 0.0159724 
359 2 -8.86201 -6.10361 -5.59844 0.548122 
360 2 -8.86201 -3.05844 -5.70781 1.5649 
361 2 -8.86201 -5.05338 -4.45469 -1.46796 
362 2 -8.86201 -2.56757 -4.09224 -0.14708 
364 2 -8.86201 -5.42588 -4.52428 1.20111 
365 2 -8.86201 -3.71346 -3.22364 -1.54608 
366 2 -8.86201 -5.39023 -3.70132 -0.574099 
367 2 -8.86201 -4.10174 -3.54362 -0.119134 
368 2 -8.86201 -4.08957 -4.13422 1.47275 
369 2 -8.86201 -5.65195 -2.41269 -1.52872 
370 2 -8.86201 -3.21741 -2.37881 -1.01489 
372 2 -8.86201 -4.07097 -2.73536 1.55992 
17 1 8.86201 8.2189 -6.11097 -1.54009 
20 1 8.86201 9.25919 -6.29867 1.43485 
21 1 8.86201 9.60882 -5.00979 -1.54505 
22 1 8.86201 8.20463 -5.41734 -0.275001 
23 1 8.86201 9.55674 -5.22561 0.371399 
25 1 8.86201 8.34878 -3.2112 -1.50157 
26 1 8.86201 10.5387 -4.1077 -1.14694 
27 1 8.86201 8.33296 -3.79582 0.426381 
28 1 8.86201 9.67685 -4.3803 1.52844 
30 1 8.86201 10.1758 -2.91778 -0.656445 
31 1 8.86201 8.65871 -2.37192 0.562675 
32 1 8.86201 9.03815 -3.09394 1.44567 
101 1 8.86201 10.7173 -5.73203 -1.56848 
111 1 8.86201 10.5571 -3.71067 0.658773 
35 1 8.86201 -10.1456 -1.73089 0.665938 
117 1 8.86201 -9.51327 -2.13047 -1.46654 
119 1 8.86201 -9.11092 -2.09678 0.474301 
120 1 8.86201 -7.61262 -1.9628 1.58973 
201 1 8.86201 -8.37969 -1.72874 -1.51359 
204 1 8.86201 -6.5273 -2.00954 1.30993 
285 2 -8.86201 -7.39639 -2.05681 -1.47449 
40 1 8.86201 -10.2567 -0.565692 1.55233 
42 1 8.86201 -10.6896 -0.398233 -1.17009 
46 1 8.86201 -10.6317 0.55891 -0.872764 
121 1 8.86201 -9.74574 -1.03736 -1.51501 
122 1 8.86201 -10.3123 -1.84832 -0.825386 
123 1 8.86201 -8.68912 -0.425915 0.334141 
124 1 8.86201 -8.92026 -1.06566 1.55465 
125 1 8.86201 -9.91774 0.243892 -1.54183 
126 1 8.86201 -9.26311 -0.329007 -0.608834 
127 1 8.86201 -10.5064 0.0398769 0.265925 
128 1 8.86201 -10.0323 0.495551 1.55937 
129 1 8.86201 -10.2098 1.60839 -1.51356 
130 1 8.86201 -8.87439 0.578508 0.270947 
131 1 8.86201 -10.5417 1.41426 1.05844 
132 1 8.86201 -8.99434 1.04106 1.55781 
133 1 8.86201 -8.96915 1.46231 -1.52333 
134 1 8.86201 -10.1205 1.59826 -0.456679 
136 1 8.86201 -9.29404 2.06596 1.5276 
205 1 8.86201 -7.30979 -0.972832 -1.54268 
206 1 8.86201 -8.35969 -0.637962 -1.60602 
207 1 8.86201 -8.09013 -1.31907 0.830065 
208 1 8.86201 -7.02362 -1.03961 1.5623 
209 1 8.86201 -7.73901 0.145987 -1.55131 
210 1 8.86201 -7.66895 -0.870258 -0.374092 
211 1 8.86201 -7.54246 -0.454602 0.580169 
212 1 8.86201 -8.37353 -0.21113 1.26168 
213 2 -8.86201 -8.85224 0.365674 -1.46943 
214 2 -8.86201 -8.26483 0.209836 -0.636749 
215 2 -8.86201 -9.62398 -0.256853 0.816092 
216 2 -8.86201 -8.09492 0.742041 1.01807 
217 2 -8.86201 -7.99633 1.66245 -1.61836 
218 2 -8.86201 -9.10299 1.32374 -0.487524 
219 2 -8.86201 -9.58428 1.26727 0.68474 
220 2 -8.86201 -8.27594 1.89457 1.54153 
289 2 -8.86201 -6.4393 -1.61249 -1.53572 
290 2 -8.86201 -8.45752 -1.80247 -0.428729 
291 2 -8.86201 -7.0867 -1.48296 0.535664 
294 2 -8.86201 -7.10126 -1.74783 -0.456526 
295 2 -8.86201 -6.57232 -0.262372 0.854374 
296 2 -8.86201 -7.31072 0.00183916 1.54954 
297 2 -8.86201 -7.16638 1.03319 -1.27996 
298 2 -8.86201 -6.99823 -0.0351922 -0.713884 
299 2 -8.86201 -7.53023 0.531485 0.157261 
300 2 -8.86201 -6.70357 0.920965 1.43045 
301 2 -8.86201 -6.65314 2.01081 -1.55045 
302 2 -8.86201 -7.98105 1.51397 -0.465047 
303 2 -8.86201 -7.3427 1.50661 0.817752 
304 2 -8.86201 -6.76584 2.0426 1.5131 
287 2 -8.86201 -5.56726 -2.13678 0.45517 
371 2 -8.86201 -4.08177 -1.93783 0.0607818 
292 2 -8.86201 -5.96927 -1.06767 1.41295 
293 2 -8.86201 -6.40063 -0.385008 -1.54712 
373 2 -8.86201 -4.72637 -1.2481 -1.51678 
374 2 -8.86201 -5.79832 -1.6884 -0.524978 
375 2 -8.86201 -5.52088 -0.780081 0.436021 
376 2 -8.86201 -4.73562 -1.46674 1.56191 
377 2 -8.86201 -3.29559 -0.399644 -1.51043 
378 2 -8.86201 -5.52845 -0.642651 -0.931756 
379 2 -8.86201 -3.54618 -0.654822 0.482714 
380 2 -8.86201 -5.51097 -0.160765 1.43449 
381 2 -8.86201 -6.08266 0.744249 -1.1426 
382 2 -8.86201 -4.37107 0.171616 -0.740253 
383 2 -8.86201 -4.43496 0.887621 0.276223 
384 2 -8.86201 -3.86154 -0.319138 1.57996 
385 2 -8.86201 -3.56958 1.42079 -1.54601 
386 2 -8.86201 -5.59399 1.52634 -0.495422 
387 2 -8.86201 -6.1858 0.416223 0.144611 
388 2 -8.86201 -4.68523 1.31029 1.4099 
391 2 -8.86201 -3.15177 2.02849 1.14875 
33 1 8.86201 10.1079 -1.3579 -1.55206 
34 1 8.86201 8.26445 -1.5809 -0.850049 
36 1 8.86201 10.4397 -2.0558 1.54825 
37 1 8.86201 8.72422 -0.908898 -1.54888 
38 1 8.86201 7.69202 -0.577063 -0.252137 
39 1 8.86201 10.1616 -0.91236 0.496161 
41 1 8.86201 8.7944 0.571284 -1.5419 
43 1 8.86201 8.01897 -0.142488 0.825276 
44 1 8.86201 9.69515 0.197608 1.48595 
45 1 8.86201 9.41293 1.82247 -1.54644 
47 1 8.86201 9.59051 0.862472 0.106355 
48 1 8.86201 9.81593 1.92382 1.54591 
51 1 8.86201 8.47522 1.86154 0.704912 
49 1 8.86201 -10.6105 2.709 -1.36854 
52 1 8.86201 -10.5766 2.39515 1.53979 
135 1 8.86201 -9.97549 2.55867 -0.0442174 
57 1 8.86201 -10.6008 4.03524 -1.48016 
59 1 8.86201 -10.6429 4.66644 0.523312 
62 1 8.86201 -10.4015 4.65754 -0.570084 
66 1 8.86201 -9.8147 5.97963 -0.52954 
137 1 8.86201 -9.72769 3.21992 -1.5693 
138 1 8.86201 -9.40212 2.25454 -0.970553 
139 1 8.86201 -8.97798 2.67122 0.474066 
140 1 8.86201 -9.66224 3.05576 1.48843 
141 1 8.86201 -8.67491 3.98709 -1.52075 
143 1 8.86201 -9.88712 3.53438 0.511432 
144 1 8.86201 -10.5312 4.49409 1.60874 
145 1 8.86201 -10.2307 5.07285 -1.55683 
146 1 8.86201 -9.28077 4.27232 -0.779745 
147 1 8.86201 -10.2997 5.80888 0.542305 
148 1 8.86201 -9.59443 5.35079 1.13938 
149 1 8.86201 -9.49847 5.92247 -1.55447 
150 1 8.86201 -8.70649 5.39107 -0.725619 
151 1 8.86201 -8.77011 5.64014 0.329375 
152 1 8.86201 -10.1993 6.32425 1.52961 
221 2 -8.86201 -8.73939 2.87512 -1.46778 
222 2 -8.86201 -8.46356 2.36461 -0.329179 
223 2 -8.86201 -7.98321 2.39097 0.595828 
224 2 -8.86201 -8.61158 3.02869 1.55089 
225 2 -8.86201 -7.71512 3.72883 -1.55529 
226 2 -8.86201 -9.79142 3.40105 -0.56606 
227 2 -8.86201 -8.83334 3.76108 0.58436 
228 2 -8.86201 -9.54088 4.20155 1.44232 
229 2 -8.86201 -9.22627 4.96562 -1.54083 
230 2 -8.86201 -8.59913 4.66158 -0.0231072 
231 2 -8.86201 -9.69571 5.0174 0.0581196 
232 2 -8.86201 -8.70801 5.02187 1.54756 
233 2 -8.86201 -8.30395 5.74901 -1.55824 
234 2 -8.86201 -7.78691 5.53493 -0.33369 
235 2 -8.86201 -7.9408 5.24306 0.798208 
236 2 -8.86201 -9.16202 6.26098 1.55429 
305 2 -8.86201 -7.51493 2.58008 -1.54054 
306 2 -8.86201 -7.27123 2.37028 -0.378887 
308 2 -8.86201 -7.16887 3.03852 1.47807 
309 2 -8.86201 -6.67952 3.51999 -1.57735 
310 2 -8.86201 -8.563 3.63968 -0.533491 
311 2 -8.86201 -7.38088 3.32919 0.49948 
312 2 -8.86201 -8.27983 4.00177 1.5574 
313 2 -8.86201 -7.58765 4.84801 -1.55185 
314 2 -8.86201 -7.20678 4.64859 -0.438109 
315 2 -8.86201 -7.81945 4.23301 0.646833 
316 2 -8.86201 -7.0544 5.36237 1.38986 
318 2 -8.86201 -7.47879 6.20409 -1.22185 
320 2 -8.86201 -7.98932 6.17164 1.59986 
394 2 -8.86201 -6.57904 3.60784 -0.422376 
153 1 8.86201 -10.5769 6.03168 -1.36926 
154 1 8.86201 -8.30056 6.38902 -0.650133 
323 2 -8.86201 -7.29273 6.36188 0.373636 
307 2 -8.86201 -5.8494 2.32422 0.706314 
317 2 -8.86201 -6.26354 6.01551 -1.51888 
319 2 -8.86201 -5.92691 5.49352 0.665222 
389 2 -8.86201 -5.21058 2.59254 -1.55433 
390 2 -8.86201 -4.12222 2.97722 -0.983871 
392 2 -8.86201 -5.08095 2.70523 1.43706 
393 2 -8.86201 -3.65024 3.92087 -1.44552 
395 2 -8.86201 -4.77261 3.29219 0.0316968 
396 2 -8.86201 -5.67115 4.01156 1.57505 
397 2 -8.86201 -5.99595 4.80542 -1.54802 
398 2 -8.86201 -4.41226 4.81124 -0.598 
399 2 -8.86201 -4.9744 4.37229 0.679693 
400 2 -8.86201 -3.44434 4.67606 1.29213 
401 2 -8.86201 -3.62607 5.36073 -1.51376 
402 2 -8.86201 -3.61133 5.85315 -0.278615 
403 2 -8.86201 -2.89996 6.0958 1.51118 
404 2 -8.86201 -6.27701 6.2747 1.53023 
50 1 8.86201 9.31747 2.20574 -0.527245 
53 1 8.86201 8.12838 2.48098 -1.52007 
54 1 8.86201 9.64857 3.3068 -0.904102 
55 1 8.86201 10.6206 3.5272 1.19388 
56 1 8.86201 8.0636 2.79005 1.58164 
58 1 8.86201 8.0414 3.87346 0.223797 
60 1 8.86201 9.14405 3.98447 1.57313 
61 1 8.86201 9.82307 4.69369 -1.43889 
63 1 8.86201 9.9172 5.55182 0.293925 
64 1 8.86201 9.52448 5.05276 1.58278 
65 1 8.86201 9.15475 5.6309 -1.4268 
68 1 8.86201 10.0883 6.40771 1.51547 
142 1 8.86201 10.6478 3.61702 -0.365652 
86 1 8.86201 -8.06321 10.5043 -0.573113 
170 1 8.86201 -6.72046 10.374 -0.549174 
255 2 -8.86201 -7.08104 9.99987 0.53573 
72 1 8.86201 -10.0128 7.27438 1.24387 
74 1 8.86201 -10.1479 7.23756 -0.521858 
81 1 8.86201 -10.4065 10.033 -1.53741 
155 1 8.86201 -9.03541 6.84795 -0.0166108 
156 1 8.86201 -8.71956 7.21974 1.43412 
157 1 8.86201 -10.6504 7.72292 -1.50024 
158 1 8.86201 -8.47824 7.67467 -0.495852 
159 1 8.86201 -10.2142 7.92467 0.215923 
160 1 8.86201 -9.74496 8.34619 1.51744 
161 1 8.86201 -10.2743 8.90677 -1.59148 
163 1 8.86201 -9.02593 8.70259 0.64467 
165 1 8.86201 -9.3695 10.1438 -1.54942 
166 1 8.86201 -10.3821 9.89548 -0.501099 
167 1 8.86201 -9.57673 9.55606 0.581964 
168 1 8.86201 -10.5932 10.2221 1.38596 
237 2 -8.86201 -9.77199 6.91999 -1.41207 
238 2 -8.86201 -7.5732 7.19987 -0.60855 
239 2 -8.86201 -8.32481 6.5979 0.632519 
240 2 -8.86201 -7.6632 7.33278 1.47185 
241 2 -8.86201 -9.60678 7.96354 -1.2866 
242 2 -8.86201 -8.97655 8.88439 -0.358775 
243 2 -8.86201 -9.27824 7.68632 0.701786 
244 2 -8.86201 -8.58133 8.30085 1.50318 
245 2 -8.86201 -9.11451 8.98508 -1.59442 
246 2 -8.86201 -10.0404 8.74708 -0.542938 
247 2 -8.86201 -8.06457 8.90643 0.206268 
248 2 -8.86201 -10.4058 9.26504 1.29077 
249 2 -8.86201 -8.40022 9.8516 -1.5062 
250 2 -8.86201 -9.33203 9.95225 -0.4333 
251 2 -8.86201 -8.53259 9.71082 0.566953 
252 2 -8.86201 -9.2974 10.5703 1.31324 
321 2 -8.86201 -8.67281 7.07467 -1.4406 
322 2 -8.86201 -6.49109 7.27652 -0.684088 
324 2 -8.86201 -6.63714 7.31078 1.50431 
325 2 -8.86201 -8.3306 8.27821 -1.58432 
326 2 -8.86201 -7.45102 8.51827 -0.560271 
327 2 -8.86201 -8.01082 7.52821 0.33899 
328 2 -8.86201 -7.41633 8.70033 1.58392 
329 2 -8.86201 -7.40645 9.05559 -1.5456 
330 2 -8.86201 -7.96778 9.40927 -0.607093 
331 2 -8.86201 -6.98485 8.85069 0.441091 
332 2 -8.86201 -9.18132 9.34526 1.50674 
333 2 -8.86201 -6.95169 9.98658 -1.5464 
336 2 -8.86201 -8.00362 9.55203 1.56774 
416 2 -8.86201 -6.61945 9.42193 1.40742 
421 2 -8.86201 -2.92227 10.6755 -1.50165 
334 2 -8.86201 -5.72284 10.3043 -0.608943 
335 2 -8.86201 -5.59522 9.79396 0.570185 
405 2 -8.86201 -5.45243 6.94696 -1.55312 
406 2 -8.86201 -2.79269 7.04442 -0.759267 
407 2 -8.86201 -4.36684 7.10251 0.214831 
408 2 -8.86201 -3.05758 7.48737 1.4494 
409 2 -8.86201 -6.35002 8.00691 -1.45031 
410 2 -8.86201 -3.33623 8.67904 -1.30043 
411 2 -8.86201 -4.99051 7.96025 0.232089 
412 2 -8.86201 -5.10522 8.46809 1.53862 
413 2 -8.86201 -5.70201 9.0339 -1.58639 
414 2 -8.86201 -5.48915 8.94994 -0.523824 
415 2 -8.86201 -4.07146 9.16624 0.964984 
417 2 -8.86201 -5.2271 10.3811 -1.56765 
418 2 -8.86201 -2.23906 9.82131 -0.479132 
419 2 -8.86201 -3.3251 10.4508 0.683217 
420 2 -8.86201 -4.89605 9.88265 1.4954 
1 1 8.86201 10.0289 10.692 -1.52619 
2 1 8.86201 8.84467 10.0431 -1.04776 
4 1 8.86201 7.6658 9.90909 1.44609 
67 1 8.86201 8.9818 6.86856 0.432447 
69 1 8.86201 9.61534 6.65256 -1.48566 
70 1 8.86201 9.03893 7.34959 -0.60822 
71 1 8.86201 10.6502 6.61395 0.151993 
73 1 8.86201 9.64994 7.74722 -1.58984 
75 1 8.86201 10.2119 7.54824 0.616199 
76 1 8.86201 8.87326 7.00879 1.56417 
77 1 8.86201 10.138 8.75251 -1.48924 
78 1 8.86201 8.83932 8.5365 -0.355233 
79 1 8.86201 10.5857 9.62251 0.483712 
80 1 8.86201 9.1739 8.36726 1.55329 
82 1 8.86201 10.1289 9.41238 -0.58503 
83 1 8.86201 7.93427 10.0531 0.090894 
84 1 8.86201 9.47888 9.73893 1.46386 
162 1 8.86201 10.2955 8.35153 -0.347562 
164 1 8.86201 10.5066 8.15771 1.4264 
ITEM: TIMESTEP
1100
ITEM: NUMBER OF ATOMS
424
ITEM: BOX BOUNDS pp pp ff
-1.0728100000000000e+01 1.0728100000000000e+01
-1.0728100000000000e+01 1.0728100000000000e+01
-2.1008399999999998e+00 2.1008399999999998e+00
ITEM: ATOMS id type q x y z 
3 1 8.86201 -10.2995 -10.3118 0.57666 
6 1 8.86201 -10.3736 -10.33 -0.674862 
16 1 8.86201 -10.4891 -8.31233 1.54038 
85 1 8.86201 -8.5507 -10.491 -1.54473 
87 1 8.86201 -8.84543 -10.6188 0.23383 
88 1 8.86201 -9.66117 -9.74812 1.25492 
89 1 8.86201 -10.1298 -9.67711 -1.45633 
90 1 8.86201 -9.21114 -9.90829 -0.610904 
91 1 8.86201 -8.98455 -9.38556 0.440001 
92 1 8.86201 -8.34956 -9.84566 1.57666 
94 1 8.86201 -8.45641 -9.10872 -0.416238 
95 1 8.86201 -8.81958 -8.09817 0.81806 
96 1 8.86201 -9.49606 -8.84213 1.56844 
97 1 8.86201 -9.38771 -7.58508 -1.46671 
98 1 8.86201 -8.59806 -7.85529 -0.34282 
99 1 8.86201 -9.74338 -7.36301 0.356859 
100 1 8.86201 -9.25061 -7.52825 1.56233 
169 1 8.86201 -7.55912 -10.6855 -1.54551 
171 1 8.86201 -7.69224 -10.6557 0.465014 
172 1 8.86201 -7.63018 10.579 1.59146 
173 1 8.86201 -8.52849 -9.29515 -1.53557 
174 1 8.86201 -7.33994 -9.96138 -0.72082 
175 1 8.86201 -7.80961 -9.6099 0.133633 
176 1 8.86201 -6.38725 -9.37927 1.57238 
177 1 8.86201 -9.46567 -8.7315 -1.55649 
178 1 8.86201 -7.32453 -8.83224 -0.543721 
179 1 8.86201 -7.72125 -8.32175 0.381833 
180 1 8.86201 -7.4613 -9.12024 1.52415 
181 1 8.86201 -6.88208 -7.12827 -1.40443 
182 1 8.86201 -7.40959 -7.73591 -0.589346 
183 1 8.86201 -7.76482 -7.29172 0.562257 
184 1 8.86201 -8.00658 -8.06112 1.56641 
253 2 -8.86201 -6.69373 -10.1867 -1.522 
256 2 -8.86201 -6.52055 -10.5975 1.51996 
257 2 -8.86201 -7.46209 -9.25948 -1.55616 
258 2 -8.86201 -6.53779 -9.30579 -0.973629 
259 2 -8.86201 -6.90566 -10.0287 0.656592 
261 2 -8.86201 -8.50844 -8.16675 -1.49563 
262 2 -8.86201 -6.49841 -8.34258 -0.324973 
263 2 -8.86201 -6.96878 -8.94495 0.547222 
264 2 -8.86201 -6.97961 -8.03967 1.51161 
267 2 -8.86201 -6.78735 -7.65064 0.419479 
268 2 -8.86201 -7.40106 -7.05764 1.47072 
345 2 -8.86201 -7.10402 -8.1617 -1.53861 
102 1 8.86201 -9.21219 -6.58577 -0.372427 
186 1 8.86201 -8.34881 -7.10622 -1.16601 
187 1 8.86201 -6.53713 -6.63964 0.691153 
188 1 8.86201 -8.38371 -6.81123 1.50058 
270 2 -8.86201 -7.56883 -6.55458 -0.673209 
254 2 -8.86201 -6.04076 -10.1743 -0.476248 
260 2 -8.86201 -5.4687 -9.57859 1.17373 
265 2 -8.86201 -6.06078 -6.53351 -1.54008 
266 2 -8.86201 -6.30375 -7.20499 -0.548002 
337 2 -8.86201 -5.58758 -9.92839 -1.569 
338 2 -8.86201 -4.34217 -10.0184 -0.732659 
339 2 -8.86201 -5.99158 -10.5282 0.5727 
340 2 -8.86201 -5.04432 -10.5418 1.55692 
341 2 -8.86201 -6.05634 -8.58311 -1.57076 
342 2 -8.86201 -4.95501 -8.86005 -0.876204 
343 2 -8.86201 -5.91919 -9.30108 0.181652 
344 2 -8.86201 -3.8998 -8.90306 1.42162 
346 2 -8.86201 -5.45172 -7.82136 -0.683896 
347 2 -8.86201 -4.64169 -8.29872 0.0712775 
348 2 -8.86201 -5.72793 -8.44177 1.38766 
349 2 -8.86201 -5.1576 -7.0459 -1.48306 
350 2 -8.86201 -4.55414 -7.095 -0.056424 
351 2 -8.86201 -3.70551 -7.26696 1.53629 
352 2 -8.86201 -6.22051 -7.34061 1.57756 
422 2 -8.86201 -3.09014 -9.72733 -0.74919 
423 2 -8.86201 -3.20213 -9.25449 0.555074 
271 2 -8.86201 -5.70928 -7.24926 0.435907 
424 2 -8.86201 -1.64918 -9.25206 1.47657 
5 1 8.86201 9.891 -9.61332 -1.53089 
7 1 8.86201 8.52205 -9.57992 0.759057 
8 1 8.86201 9.93768 -10.5112 1.58781 
9 1 8.86201 8.5996 -8.29522 -1.4995 
10 1 8.86201 9.50073 -9.15963 -0.204829 
11 1 8.86201 9.77482 -7.93735 0.867219 
12 1 8.86201 10.5133 -9.37474 1.54069 
13 1 8.86201 10.629 -6.93602 -1.55009 
14 1 8.86201 9.70447 -8.11039 -0.784709 
15 1 8.86201 7.34316 -6.78331 1.21072 
93 1 8.86201 10.5123 -8.18606 -1.55816 
18 1 8.86201 7.95132 -7.03264 -0.71628 
19 1 8.86201 -10.4822 -6.40064 1.06876 
24 1 8.86201 -10.2513 -5.24223 1.50976 
29 1 8.86201 -10.4301 -2.98676 -1.55186 
103 1 8.86201 -7.55469 -6.19121 0.384881 
104 1 8.86201 -9.4679 -6.15503 1.5938 
105 1 8.86201 -8.92381 -5.1399 -1.55649 
106 1 8.86201 -9.69155 -5.48386 -0.705368 
107 1 8.86201 -9.22094 -4.84576 0.967056 
108 1 8.86201 -8.4884 -5.59469 1.55202 
109 1 8.86201 -9.10274 -3.9406 -1.53294 
110 1 8.86201 -8.23372 -4.62259 -0.5869 
112 1 8.86201 -9.27327 -3.72663 1.43286 
113 1 8.86201 -8.01898 -2.89778 -1.54826 
114 1 8.86201 -9.77762 -3.70007 -0.598631 
115 1 8.86201 -7.87232 -2.66811 0.241207 
116 1 8.86201 -8.69453 -2.37809 1.48794 
118 1 8.86201 -8.96101 -2.72008 -0.621431 
185 1 8.86201 -9.01404 -6.25683 -1.55918 
189 1 8.86201 -7.78751 -4.93289 -1.5528 
190 1 8.86201 -8.39395 -5.89993 -0.508626 
191 1 8.86201 -8.20573 -5.16441 0.588946 
192 1 8.86201 -7.34931 -4.85169 1.52787 
193 1 8.86201 -7.57036 -3.87039 -1.47542 
194 1 8.86201 -7.10582 -4.30834 -0.254414 
195 1 8.86201 -8.83232 -3.96749 0.484208 
196 1 8.86201 -7.82003 -3.64325 1.53889 
197 1 8.86201 -6.70345 -2.90474 -1.5813 
198 1 8.86201 -7.82252 -3.64055 -0.445032 
199 1 8.86201 -6.68253 -3.50097 0.25412 
200 1 8.86201 -6.97525 -2.76347 1.08218 
202 1 8.86201 -7.05035 -2.84159 -0.552386 
203 1 8.86201 -6.36673 -2.38805 0.270918 
269 2 -8.86201 -7.99683 -6.21416 -1.55503 
272 2 -8.86201 -7.59743 -6.02781 1.39937 
273 2 -8.86201 -6.95307 -5.48896 -1.45351 
274 2 -8.86201 -7.47217 -5.43456 -0.52226 
275 2 -8.86201 -7.18943 -5.26378 0.574262 
277 2 -8.86201 -6.77975 -4.50754 -1.58928 
279 2 -8.86201 -7.66286 -4.17298 0.678839 
280 2 -8.86201 -6.75443 -3.94468 1.38881 
282 2 -8.86201 -6.59086 -3.75333 -0.856094 
354 2 -8.86201 -6.54669 -6.09594 -0.66611 
363 2 -8.86201 -6.46736 -4.54099 0.589755 
276 2 -8.86201 -6.29306 -5.08289 1.53276 
278 2 -8.86201 -6.18291 -4.91029 -0.777529 
281 2 -8.86201 -5.83399 -3.57625 -1.5658 
283 2 -8.86201 -5.6905 -3.26949 0.468457 
284 2 -8.86201 -6.07168 -3.02935 1.58524 
286 2 -8.86201 -6.00155 -2.8012 -0.607375 
288 2 -8.86201 -5.3548 -2.25016 1.57514 
353 2 -8.86201 -4.49811 -6.12584 -1.51438 
355 2 -8.86201 -3.90118 -6.09557 0.986107 
356 2 -8.86201 -6.36495 -6.16702 1.55898 
357 2 -8.86201 -5.81988 -5.52674 -1.5266 
358 2 -8.86201 -4.28127 -4.71683 0.0338431 
359 2 -8.86201 -6.16632 -5.67742 0.568183 
360 2 -8.86201 -2.76906 -5.72187 1.531 
361 2 -8.86201 -4.97052 -4.5308 -1.40203 
362 2 -8.86201 -2.22615 -4.10948 -0.126377 
364 2 -8.86201 -5.38845 -4.49688 1.18701 
365 2 -8.86201 -3.52122 -3.25345 -1.5387 
366 2 -8.86201 -5.2824 -3.73734 -0.524142 
367 2 -8.86201 -3.91763 -3.50284 -0.185249 
368 2 -8.86201 -3.89421 -4.19665 1.51576 
369 2 -8.86201 -5.62198 -2.43487 -1.51198 
370 2 -8.86201 -2.93251 -2.3861 -1.09139 
372 2 -8.86201 -3.81053 -2.79673 1.52936 
17 1 8.86201 7.91843 -6.12077 -1.55964 
20 1 8.86201 9.08145 -6.30248 1.42062 
21 1 8.86201 9.44259 -5.03 -1.56084 
22 1 8.86201 7.86949 -5.42346 -0.256206 
23 1 8.86201 9.38197 -5.23551 0.374009 
25 1 8.86201 8.05285 -3.13036 -1.52587 
26 1 8.86201 10.516 -4.06892 -1.2546 
27 1 8.86201 7.98314 -3.7638 0.420216 
28 1 8.86201 9.53834 -4.37759 1.46487 
30 1 8.86201 10.0601 -2.85296 -0.708973 
31 1 8.86201 8.38433 -2.2936 0.629699 
32 1 8.86201 8.83183 -3.05178 1.54338 
101 1 8.86201 10.6558 -5.70194 -1.53774 
111 1 8.86201 10.4609 -3.68992 0.761822 
35 1 8.86201 -10.1903 -1.63291 0.741657 
117 1 8.86201 -9.40613 -2.09834 -1.50245 
119 1 8.86201 -9.09111 -2.12547 0.510209 
120 1 8.86201 -7.42914 -1.92816 1.51722 
201 1 8.86201 -8.40007 -1.56501 -1.54835 
204 1 8.86201 -6.3381 -2.00097 1.3927 
285 2 -8.86201 -7.49523 -2.0704 -1.50425 
40 1 8.86201 -10.2486 -0.523726 1.5851 
42 1 8.86201 10.7162 -0.402017 -1.26945 
46 1 8.86201 -10.7242 0.704562 -0.852696 
121 1 8.86201 -9.66654 -1.03044 -1.45811 
122 1 8.86201 -10.3666 -1.82867 -0.813955 
123 1 8.86201 -8.5828 -0.434649 0.28774 
124 1 8.86201 -8.98181 -1.08407 1.48353 
125 1 8.86201 -9.96058 0.234809 -1.58475 
126 1 8.86201 -9.19033 -0.308378 -0.594214 
127 1 8.86201 -10.5504 0.0802928 0.301442 
128 1 8.86201 -10.0534 0.556683 1.39678 
129 1 8.86201 -10.2831 1.7136 -1.53411 
130 1 8.86201 -8.90269 0.663573 0.414062 
131 1 8.86201 10.7036 1.49606 1.03883 
132 1 8.86201 -8.96715 0.989949 1.52574 
133 1 8.86201 -9.05404 1.35576 -1.51859 
134 1 8.86201 -10.2832 1.59183 -0.393224 
136 1 8.86201 -9.29262 2.04949 1.49927 
205 1 8.86201 -7.2094 -0.925463 -1.50384 
206 1 8.86201 -8.34201 -0.562072 -1.47623 
207 1 8.86201 -8.12159 -1.28927 0.795263 
208 1 8.86201 -6.812 -1.01509 1.55198 
209 1 8.86201 -7.59513 0.27927 -1.55552 
210 1 8.86201 -7.46464 -0.887865 -0.448462 
211 1 8.86201 -7.47557 -0.481443 0.524366 
212 1 8.86201 -8.31609 -0.230571 1.36603 
213 2 -8.86201 -8.95302 0.243853 -1.56931 
214 2 -8.86201 -8.29076 0.05247 -0.586008 
215 2 -8.86201 -9.72496 -0.538753 0.714394 
216 2 -8.86201 -8.08492 0.757072 1.03621 
217 2 -8.86201 -7.96167 1.57767 -1.43541 
218 2 -8.86201 -9.26621 1.24138 -0.407482 
219 2 -8.86201 -9.76341 1.23603 0.734681 
220 2 -8.86201 -8.28056 1.81717 1.57506 
289 2 -8.86201 -6.43939 -1.71133 -1.53008 
290 2 -8.86201 -8.57366 -1.724 -0.415304 
291 2 -8.86201 -7.04213 -1.49685 0.608464 
294 2 -8.86201 -7.08287 -1.83961 -0.472455 
295 2 -8.86201 -6.49671 -0.310082 0.900166 
296 2 -8.86201 -7.35146 0.00914861 1.53972 
297 2 -8.86201 -7.09681 1.06205 -1.21026 
298 2 -8.86201 -7.06684 -0.0309196 -0.731385 
299 2 -8.86201 -7.63177 0.535885 0.0652837 
300 2 -8.86201 -6.71255 0.909031 1.42792 
301 2 -8.86201 -6.62152 2.00895 -1.53893 
302 2 -8.86201 -8.15138 1.34018 -0.408717 
303 2 -8.86201 -7.38247 1.43105 0.772988 
304 2 -8.86201 -6.80458 2.00764 1.57214 
287 2 -8.86201 -5.26604 -2.15105 0.475702 
371 2 -8.86201 -3.89084 -1.95727 0.00537033 
292 2 -8.86201 -5.7854 -1.11341 1.46088 
293 2 -8.86201 -6.3376 -0.446809 -1.55404 
373 2 -8.86201 -4.61632 -1.26528 -1.44811 
374 2 -8.86201 -5.76456 -1.67894 -0.472606 
375 2 -8.86201 -5.48835 -0.726677 0.456611 
376 2 -8.86201 -4.64577 -1.47006 1.47751 
377 2 -8.86201 -3.01938 -0.432717 -1.47581 
378 2 -8.86201 -5.49625 -0.637207 -1.00384 
379 2 -8.86201 -3.2607 -0.733334 0.460338 
380 2 -8.86201 -5.31702 -0.021761 1.41751 
381 2 -8.86201 -6.03603 0.763757 -1.15843 
382 2 -8.86201 -4.21089 0.05411 -0.773981 
383 2 -8.86201 -4.26823 0.883355 0.247432 
384 2 -8.86201 -3.64762 -0.416616 1.53194 
385 2 -8.86201 -3.2875 1.43813 -1.56452 
386 2 -8.86201 -5.55453 1.43848 -0.45832 
387 2 -8.86201 -6.12167 0.327767 0.0169519 
388 2 -8.86201 -4.53487 1.24656 1.49775 
391 2 -8.86201 -2.8094 1.95411 1.25198 
33 1 8.86201 9.92821 -1.35684 -1.50179 
34 1 8.86201 7.92935 -1.52805 -0.911875 
36 1 8.86201 10.3825 -2.03028 1.56995 
37 1 8.86201 8.50209 -0.820984 -1.55172 
38 1 8.86201 7.32162 -0.501585 -0.249644 
39 1 8.86201 10.0441 -0.878325 0.535624 
41 1 8.86201 8.58278 0.669258 -1.537 
43 1 8.86201 7.70283 -0.110333 0.920876 
44 1 8.86201 9.57018 0.213409 1.5152 
45 1 8.86201 9.29607 1.90123 -1.57449 
47 1 8.86201 9.46543 0.848571 0.108372 
48 1 8.86201 9.73018 2.04668 1.57467 
51 1 8.86201 8.19938 1.86885 0.734958 
49 1 8.86201 -10.6436 2.7785 -1.36918 
52 1 8.86201 10.713 2.59212 1.50614 
135 1 8.86201 -9.94612 2.54309 -0.0465187 
57 1 8.86201 -10.6365 4.10736 -1.51117 
59 1 8.86201 10.6921 4.75702 0.491472 
62 1 8.86201 -10.477 4.59092 -0.607759 
66 1 8.86201 -9.67957 5.99693 -0.526702 
137 1 8.86201 -9.66986 3.29757 -1.53088 
138 1 8.86201 -9.5125 2.18174 -0.989752 
139 1 8.86201 -9.01153 2.753 0.543732 
140 1 8.86201 -9.70209 3.07748 1.53992 
141 1 8.86201 -8.64308 4.01134 -1.50816 
143 1 8.86201 -10.0257 3.51862 0.659119 
144 1 8.86201 -10.6234 4.57415 1.46912 
145 1 8.86201 -10.2732 5.06711 -1.53267 
146 1 8.86201 -9.39574 4.30361 -0.639907 
147 1 8.86201 -10.3351 5.81715 0.488434 
148 1 8.86201 -9.57765 5.33808 1.12124 
149 1 8.86201 -9.53582 5.92824 -1.57676 
150 1 8.86201 -8.68185 5.31752 -0.662997 
151 1 8.86201 -8.82036 5.59878 0.355224 
152 1 8.86201 -10.3208 6.34412 1.59557 
221 2 -8.86201 -8.74836 2.87151 -1.53028 
222 2 -8.86201 -8.65109 2.37431 -0.412909 
223 2 -8.86201 -8.01608 2.28209 0.647943 
224 2 -8.86201 -8.6523 2.92322 1.484 
225 2 -8.86201 -7.6178 3.72991 -1.54671 
226 2 -8.86201 -10.0531 3.50618 -0.510993 
227 2 -8.86201 -8.98422 3.7365 0.697568 
228 2 -8.86201 -9.64243 4.27742 1.41403 
229 2 -8.86201 -9.24229 4.85885 -1.53511 
230 2 -8.86201 -8.74817 4.5721 0.109823 
231 2 -8.86201 -9.73046 5.15111 0.0391987 
232 2 -8.86201 -8.72167 5.08151 1.59858 