LAMMPS data file
5424 atoms
3 atom types
-10.7281 10.7281 xlo xhi
-10.7281 10.7281 ylo yhi
-2.10094 2.10094 zlo zhi
 
Atoms
 
1   1   8.862010124   9.148054766   -5.489299426   -0.04810968855
2   1   8.862010124   4.908536906   5.317473945   0.5079037824
3   1   8.862010124   -3.771361928   6.226942558   0.0629838307
4   1   8.862010124   -6.77976364   -0.5005698245   -0.3447762041
5   1   8.862010124   -5.6936339   -5.867046155   -1.503716699
6   1   8.862010124   1.635101903   8.147821637   0.5300828394
7   1   8.862010124   -0.02842784298   1.240226466   -1.01722311
8   1   8.862010124   -4.162323534   -7.826376481   -1.399398062
9   1   8.862010124   3.030093003   4.611216581   0.439050179
10   1   8.862010124   -8.022684087   -7.584301006   0.007693762093
11   1   8.862010124   -5.977725741   -4.318102438   -1.334541204
12   1   8.862010124   -7.607182049   0.9690411753   -1.337279265
13   1   8.862010124   -4.252005842   8.011150997   -0.8736815406
14   1   8.862010124   -1.394185894   -7.349253649   -0.3189125765
15   1   8.862010124   3.824231554   -6.736836443   -0.1894726842
16   1   8.862010124   -9.300706484   -3.860166734   0.01978975309
17   1   8.862010124   -2.741369442   -6.938577436   -0.1277253349
18   1   8.862010124   -0.439055085   -8.384859356   -0.516339775
19   1   8.862010124   -8.280405627   -1.298113116   -0.081087838
20   1   8.862010124   -1.65192509   5.67736176   0.3989632365
21   1   8.862010124   -2.227596709   2.494769797   -0.4908193195
22   1   8.862010124   -9.28366726   2.31291234   0.2157101875
23   1   8.862010124   -0.02262407878   4.578150088   -1.138035714
24   1   8.862010124   -9.362758491   -3.870586967   -1.211384205
25   1   8.862010124   -5.276285928   -2.433089158   -0.1916893055
26   1   8.862010124   2.041449385   2.957454501   -0.2157093399
27   1   8.862010124   1.144900464   4.435755995   0.4557993119
28   1   8.862010124   3.800294155   -8.261087784   -1.207246642
29   1   8.862010124   -9.06216928   6.547472063   -1.198903631
30   1   8.862010124   -3.769163919   -6.534401152   -1.145474197
31   1   8.862010124   3.363612403   3.788276061   -0.9893131402
32   1   8.862010124   8.192217099   -6.573475401   0.5751343256
33   1   8.862010124   -4.993257734   2.842305918   0.2430404457
34   1   8.862010124   -4.935653682   -6.308849037   -0.1739695729
35   1   8.862010124   3.099924586   -9.65953903   -0.3522565843
36   1   8.862010124   6.70786947   -4.422355614   0.3528368756
37   1   8.862010124   7.100906432   3.053221919   -1.340279075
38   1   8.862010124   -1.567035557   -3.353634686   -1.600041524
39   1   8.862010124   7.545102094   -10.15134699   -1.069853409
40   1   8.862010124   -4.104887653   -3.691255644   -0.6372890668
41   1   8.862010124   0.7823304072   -1.872127258   -0.9208951982
42   1   8.862010124   -2.577844387   -1.223512625   -1.223372405
43   1   8.862010124   6.247947642   -6.85503813   -0.6962696994
44   1   8.862010124   -6.695627565   8.915697347   0.5793539134
45   1   8.862010124   -7.493189146   -5.016664438   -0.321945397
46   1   8.862010124   -2.674953373   4.630514249   -0.7112935121
47   1   8.862010124   3.959696958   0.007255601857   -1.221743613
48   1   8.862010124   5.532471062   8.460651373   0.508934835
49   1   8.862010124   3.696877621   1.09072831   0.2785640886
50   1   8.862010124   3.919837097   -0.7640834981   0.237738537
51   1   8.862010124   -5.708106077   -10.18246806   -0.01390561854
52   1   8.862010124   4.881436348   -1.134689691   -0.2634911373
53   1   8.862010124   1.577441631   -7.513817137   -0.5832682673
54   1   8.862010124   2.550148731   -7.555610901   0.4649174615
55   1   8.862010124   -7.483946777   3.128291022   -0.7517225757
56   1   8.862010124   -2.417820349   1.845461351   0.54333828
57   1   8.862010124   1.111438508   -9.829128205   -1.010620229
58   1   8.862010124   1.940430231   0.311849071   -0.5420653193
59   1   8.862010124   2.026710232   -9.722308364   -1.561591607
60   1   8.862010124   -9.072239611   4.890625577   -0.3964442035
61   1   8.862010124   -3.169041943   -8.553929125   -0.8880772391
62   1   8.862010124   -7.109029466   -2.021543474   0.1012134764
63   1   8.862010124   6.376346524   -9.39396648   -1.223397377
64   1   8.862010124   1.53810433   6.798882649   -0.9456424714
65   1   8.862010124   8.019992811   7.095448707   -0.6192572093
66   1   8.862010124   -9.545651057   4.222588228   -0.9809449857
67   1   8.862010124   0.183658978   -9.787389556   0.5530352456
68   1   8.862010124   6.414310093   6.285877762   -0.05914514885
69   1   8.862010124   0.7674997931   5.745107814   -0.525559378
70   1   8.862010124   -2.488290124   3.034453374   -1.454610881
71   1   8.862010124   -1.241055638   -0.6712156979   -0.2878848275
72   1   8.862010124   9.147220173   -5.143699462   -1.579373112
73   1   8.862010124   -1.130671568   3.560384396   -0.01126876061
74   1   8.862010124   -8.322589621   7.982142064   -0.1730661747
75   1   8.862010124   6.454996325   0.6744117593   -1.424315204
76   1   8.862010124   -9.1237786   8.165891302   -1.130489837
77   1   8.862010124   8.854468445   0.1496974286   0.2065180543
78   1   8.862010124   6.151462807   2.984310374   -0.6108182468
79   1   8.862010124   3.49789546   2.153751266   -1.126121062
80   1   8.862010124   7.98747977   5.278651236   -1.375728288
81   1   8.862010124   7.2025308   5.63276816   0.5919753963
82   1   8.862010124   -3.160928487   2.232249724   -0.9043375325
83   1   8.862010124   2.503954378   -0.8685942812   0.1760388978
84   1   8.862010124   -2.693132636   -5.35560941   -0.6394594486
85   1   8.862010124   4.302606375   -9.256965447   -0.02393114329
86   1   8.862010124   -2.125207186   6.487388224   -0.4835363157
87   1   8.862010124   1.796058773   -0.2164046741   0.5554085477
88   1   8.862010124   6.72294307   0.3438590322   -0.03391244649
89   1   8.862010124   7.380371068   -0.9035670245   -0.5366315979
90   1   8.862010124   -9.018139481   -0.9768679847   -0.904941544
91   1   8.862010124   -3.158291988   1.022239324   -0.5839153122
92   1   8.862010124   -3.521980859   -4.363274243   -1.144552641
93   1   8.862010124   -8.1971908   -6.293723527   -0.6135160743
94   1   8.862010124   -7.980749171   -2.980817392   0.1784702674
95   1   8.862010124   3.900974319   2.941930218   -0.4382963649
96   1   8.862010124   4.998560019   5.474836308   -0.8150119862
97   1   8.862010124   3.436835653   7.916349398   -0.4263040033
98   1   8.862010124   0.6455301033   0.05817712657   -0.5937719487
99   1   8.862010124   2.506736134   -9.820964158   0.5646328255
100   1   8.862010124   8.015647766   -9.301751166   -0.2319263159
101   1   8.862010124   -5.584995792   -0.3258069136   -1.073697605
102   1   8.862010124   -8.390998396   -2.36752931   -1.524526765
103   1   8.862010124   6.672833567   8.932324915   -0.8145408279
104   1   8.862010124   2.857504519   -0.1363402374   -1.36567847
105   1   8.862010124   5.310369168   -2.91363181   0.02886745386
106   1   8.862010124   4.886990335   1.389452854   -0.6753732977
107   1   8.862010124   -4.932112525   -0.4436869285   -0.2006141526
108   1   8.862010124   -5.293458074   -7.014277801   -0.9020388633
109   1   8.862010124   -7.849516504   5.093978778   -1.094044194
110   1   8.862010124   -9.877416055   0.8792500512   -0.5826479909
111   1   8.862010124   -8.339335611   -4.062637956   0.438960942
112   1   8.862010124   -6.46166324   -3.215609303   0.3407644714
113   1   8.862010124   6.918232109   -6.41940447   -1.503911154
114   1   8.862010124   -1.88206301   7.811799402   0.4736926202
115   1   8.862010124   -5.380263864   0.5892899097   -0.6604057343
116   1   8.862010124   -8.298680651   8.889028464   -1.21126197
117   1   8.862010124   -3.074946692   -8.857004548   0.4552686474
118   1   8.862010124   3.936745738   -3.376779138   -0.4026299349
119   1   8.862010124   -0.7409948756   0.5534721289   -0.02141958794
120   1   8.862010124   -4.750260444   1.699453181   -1.417219414
121   1   8.862010124   3.116699606   -0.9654336903   -0.6235946027
122   1   8.862010124   8.639316707   -7.756100568   -0.3079729467
123   1   8.862010124   -4.903557295   5.704093703   0.5373739246
124   1   8.862010124   -0.7423707317   2.337969559   -0.7861065561
125   1   8.862010124   6.314488679   -5.543975132   -0.1585536426
126   1   8.862010124   0.2780911379   1.191777636   0.5319545546
127   1   8.862010124   0.5051763249   -0.9680809343   0.4185977251
128   1   8.862010124   4.109624012   -2.515598833   0.5884568238
129   1   8.862010124   -6.175976296   2.401577433   -0.276221291
130   1   8.862010124   -9.230481343   0.5844145184   0.373790431
131   1   8.862010124   -4.685649501   6.154092386   -0.847887573
132   1   8.862010124   8.259956523   -4.934014122   -0.9882422425
133   1   8.862010124   -9.974253359   7.229523228   0.3874312532
134   1   8.862010124   5.781681782   -9.612746888   0.01476177162
135   1   8.862010124   -0.8443882582   8.229523539   0.1533763581
136   1   8.862010124   5.648584401   -4.181874638   -1.470039984
137   1   8.862010124   0.1464536627   3.848862175   -0.01708403874
138   1   8.862010124   -0.9298173206   -1.606222467   -1.475168822
139   1   8.862010124   1.45179599   -5.831897468   0.5968999385
140   1   8.862010124   -6.896640124   6.190504817   -1.333032832
141   1   8.862010124   2.828500344   -5.505664918   0.2564366264
142   1   8.862010124   -0.6300420838   -3.901487791   0.5404770947
143   1   8.862010124   -8.797620961   1.032332859   -1.571070205
144   1   8.862010124   0.3363333439   -2.921595551   -0.05655163209
145   1   8.862010124   2.664637313   -6.254547148   -0.9186207658
146   1   8.862010124   -9.929486139   -2.727408299   -0.5119462507
147   1   8.862010124   4.536915795   -2.709775063   -1.533497667
148   1   8.862010124   7.438609626   -7.425726356   -1.432985895
149   1   8.862010124   -9.518301949   -8.323186557   0.4970836407
150   1   8.862010124   6.523185124   4.424163274   -0.2938376701
151   1   8.862010124   -6.804660517   -4.274160376   -0.3873216744
152   1   8.862010124   -0.8125617094   -4.942054407   -0.2225056957
153   1   8.862010124   -4.246042479   5.002861002   -1.372620888
154   1   8.862010124   -5.510437427   -3.425286069   -0.369373135
155   1   8.862010124   8.918959788   -1.207478312   0.05156044898
156   1   8.862010124   -0.8347253167   6.440548048   -1.325469664
157   1   8.862010124   -7.350844967   3.786033572   0.4790441863
158   1   8.862010124   -1.19485616   -9.720881159   -0.6502498312
159   1   8.862010124   -3.65143262   3.548636459   -0.1215320222
160   1   8.862010124   -10.20568863   6.320056625   -0.512571348
161   1   8.862010124   -4.855820681   -1.68387764   -0.7195020853
162   1   8.862010124   -5.841413214   0.8925619954   0.5963737697
163   1   8.862010124   -10.16724423   -6.386577429   0.5306335513
164   1   8.862010124   8.678284226   -2.780328483   -0.1710080837
165   1   8.862010124   5.620905843   -0.4319136485   -1.241072494
166   1   8.862010124   1.542379408   -3.349422868   0.05941419346
167   1   8.862010124   -7.347321884   0.7156328065   0.2244137606
168   1   8.862010124   7.735098803   8.751010331   -1.0730545
169   1   8.862010124   -9.173205298   6.62155471   0.2714730439
170   1   8.862010124   -10.08511297   3.340811233   -0.0643699625
171   1   8.862010124   -9.019544491   3.08726085   -0.9016330146
172   1   8.862010124   -2.02545368   -7.090044231   -1.386293181
173   1   8.862010124   1.965319012   5.121004169   0.06221803056
174   1   8.862010124   -6.674407614   -8.009638557   0.04614598556
175   1   8.862010124   -5.443054678   4.799635565   0.585061577
176   1   8.862010124   -0.7116560108   -5.974824237   -1.287437972
177   1   8.862010124   0.3836814188   -8.272105873   -1.227738674
178   1   8.862010124   4.470214751   4.411514708   -0.4491935772
179   1   8.862010124   4.23021023   7.315178854   -1.187662719
180   1   8.862010124   -7.982042639   -8.676268749   -0.2224851758
181   1   8.862010124   7.601299103   2.486880776   0.5007281225
182   1   8.862010124   -2.82975892   -1.203312336   0.2055568897
183   1   8.862010124   8.529720182   3.764686764   -0.9259583806
184   1   8.862010124   4.004902645   -8.199945908   0.2036120324
185   1   8.862010124   1.654746501   2.505475648   -1.476461034
186   1   8.862010124   9.136180432   8.552816473   -1.312631709
187   1   8.862010124   7.177281153   -3.741438305   -0.9313777065
188   1   8.862010124   -2.046185559   0.945587343   -1.252818164
189   1   8.862010124   -9.31782089   9.052810156   0.5133283362
190   1   8.862010124   -3.635709811   6.627446291   -1.360851727
191   1   8.862010124   6.954696774   8.219625489   0.2718802427
192   1   8.862010124   2.838060037   -3.408518922   -1.123881812
193   1   8.862010124   0.6781420351   2.717478724   0.1839273959
194   1   8.862010124   -8.960862798   -7.179096996   -1.432378477
195   1   8.862010124   -8.431940884   3.82321554   -0.5214481405
196   1   8.862010124   -7.011765321   6.755234472   -0.4191535762
197   1   8.862010124   -5.371045309   7.902676326   -0.8404151534
198   1   8.862010124   4.394759949   -5.824512483   -1.411941438
199   1   8.862010124   -9.309115632   -9.723832092   0.284099982
200   1   8.862010124   4.28190957   9.035784296   -0.7497297576
201   1   8.862010124   0.2751606763   6.399288689   0.05780239177
202   1   8.862010124   1.919416978   -2.064330562   0.2951961308
203   1   8.862010124   5.498133224   7.401914849   0.06524728857
204   1   8.862010124   -1.57724323   1.365886295   -0.2648436605
205   1   8.862010124   -6.908324334   5.648124782   0.2812820402
206   1   8.862010124   8.674286155   5.748579597   0.05097405764
207   1   8.862010124   -3.164845166   -2.374008721   -1.37591252
208   1   8.862010124   -10.11082067   7.373402828   -1.217423075
209   1   8.862010124   2.219901716   6.61993894   0.5800262752
210   1   8.862010124   -5.248530984   4.062237563   -0.758483214
211   1   8.862010124   7.067409083   -7.668536409   -0.1346370482
212   1   8.862010124   -5.154902168   -7.582546928   0.2750915901
213   2   -8.862010124   -2.614307681   -10.19885308   -0.4184763973
214   2   -8.862010124   7.469014753   -1.571765901   0.4521263338
215   2   -8.862010124   8.956638382   -8.822085853   -1.102978704
216   2   -8.862010124   -8.168107109   6.099017598   -0.3675507268
217   2   -8.862010124   3.149856578   -2.01201815   0.5904746956
218   2   -8.862010124   -0.5584108851   -6.808052731   0.4029098117
219   2   -8.862010124   -8.635743953   -4.933933682   -0.588652227
220   2   -8.862010124   5.251655184   0.4056041741   0.08520269691
221   2   -8.862010124   6.871857292   5.568905954   -0.9284612671
222   2   -8.862010124   6.309249978   -3.287943645   -0.1450614123
223   2   -8.862010124   6.283819243   -1.241176905   -0.5269619701
224   2   -8.862010124   9.039582799   -1.057225088   -1.154342189
225   2   -8.862010124   5.228277328   4.6854947   -1.591455682
226   2   -8.862010124   -7.276115092   -6.667304466   0.3751262733
227   2   -8.862010124   1.48286388   -5.157037801   -0.2545429718
228   2   -8.862010124   -9.105769971   -6.70512033   -0.4863986392
229   2   -8.862010124   -1.803020022   5.50786848   -1.238102982
230   2   -8.862010124   0.6330547901   -5.863845555   -0.999154152
231   2   -8.862010124   -10.17312058   -7.286723239   -1.304338878
232   2   -8.862010124   -4.930701814   7.131615418   0.2120561691
233   2   -8.862010124   -3.475780253   -3.282805749   0.1711914284
234   2   -8.862010124   -1.814959187   4.238324072   0.5964346938
235   2   -8.862010124   -0.1010911302   -6.900544467   -0.6965674654
236   2   -8.862010124   8.174004349   1.488431379   -0.8312401469
237   2   -8.862010124   9.180525284   0.0409330954   -0.7629167019
238   2   -8.862010124   -5.582259183   -8.198839243   -1.108597489
239   2   -8.862010124   1.412534237   8.038258085   -0.8024846081
240   2   -8.862010124   7.687383894   -1.769346314   -1.19293645
241   2   -8.862010124   -3.657653475   0.7798206474   0.4877590426
242   2   -8.862010124   3.023932745   5.735125367   -1.455153162
243   2   -8.862010124   -3.101280081   8.346923283   -1.145350873
244   2   -8.862010124   -5.931489937   -1.589032813   0.2133251975
245   2   -8.862010124   7.970619914   -5.383688851   0.316488677
246   2   -8.862010124   -0.8407621505   5.465553579   -0.6560692988
247   2   -8.862010124   8.644998452   2.574804647   -0.7562615133
248   2   -8.862010124   -0.2437940512   -1.620878266   -0.5845665144
249   2   -8.862010124   -4.373978318   2.13348617   -0.449274123
250   2   -8.862010124   -6.675295446   4.611754129   -1.075942858
251   2   -8.862010124   -1.634924606   -4.094863764   -0.8590030476
252   2   -8.862010124   -5.748077722   5.581854365   -1.023406211
253   2   -8.862010124   4.626571541   -9.035450268   -1.211109435
254   2   -8.862010124   -3.51038129   -2.030415108   -0.2155973838
255   2   -8.862010124   -8.876016193   -5.673615486   -1.484918077
256   2   -8.862010124   6.008771089   -8.638938047   0.5721074851
257   2   -8.862010124   -3.112992916   5.642085381   -0.7269877224
258   2   -8.862010124   2.43908556   1.179669876   -1.384807086
259   2   -8.862010124   -3.65947952   -0.3178169246   -0.3846642122
260   2   -8.862010124   6.827152256   3.021339602   0.1258682699
261   2   -8.862010124   -7.457770867   -3.457948297   -1.293338734
262   2   -8.862010124   -6.471629189   -3.161267882   -0.6649802649
263   2   -8.862010124   -1.87797343   4.278051397   -1.583327002
264   2   -8.862010124   -2.778327714   9.13126581   0.4872643191
265   2   -8.862010124   -5.96031019   6.640370007   -0.7960645857
266   2   -8.862010124   1.173429974   -6.539979424   -0.2136152787
267   2   -8.862010124   2.106382411   -4.741655235   -1.485923491
268   2   -8.862010124   -1.838132616   -2.105381338   -1.282012515
269   2   -8.862010124   -9.417652887   9.101283771   -0.9115635072
270   2   -8.862010124   -9.290712463   -5.245319281   0.3039027797
271   2   -8.862010124   8.284872095   8.42554648   -0.09530093651
272   2   -8.862010124   -9.976294222   -6.136157948   -1.351779119
273   2   -8.862010124   7.966649624   0.7549800379   0.03643768083
274   2   -8.862010124   0.07995066203   -0.736699384   -0.980090038
275   2   -8.862010124   -9.739474756   -1.002402388   0.5383990152
276   2   -8.862010124   -2.854901198   4.547231913   0.2982291645
277   2   -8.862010124   2.308776432   -6.497486617   0.480415802
278   2   -8.862010124   7.596331155   -2.777119315   0.02081784481
279   2   -8.862010124   3.762587151   1.244809623   -1.535481014
280   2   -8.862010124   -9.048446584   -1.877436906   0.5951309185
281   2   -8.862010124   -1.615002992   -5.567496391   -0.170148582
282   2   -8.862010124   -7.477754299   -9.591393783   -0.1344858547
283   2   -8.862010124   -3.758823073   -4.498298917   0.3903934417
284   2   -8.862010124   2.284448366   1.05560488   0.03249384217
285   2   -8.862010124   -6.20572244   7.975326182   -0.2800618902
286   2   -8.862010124   6.274763887   -2.753558195   -1.451101356
287   2   -8.862010124   4.233855237   6.398194026   -0.3370879538
288   2   -8.862010124   -6.878441572   -6.824078795   -0.8480276034
289   2   -8.862010124   1.06668701   -8.839010812   0.007361537671
290   2   -8.862010124   -2.631309316   0.3139182729   0.405196664
291   2   -8.862010124   -4.291265422   -9.921406937   0.3766885316
292   2   -8.862010124   5.472877885   2.107209616   0.251782736
293   2   -8.862010124   4.739399768   -4.169984125   -0.9431351838
294   2   -8.862010124   7.82497602   5.324543315   -0.3216669344
295   2   -8.862010124   7.602800426   6.324455204   -1.560464848
296   2   -8.862010124   -2.96601937   7.340213606   0.3183201954
297   2   -8.862010124   8.571804261   -9.948423917   -1.12911891
298   2   -8.862010124   -8.115750402   4.903281579   0.4378319686
299   2   -8.862010124   -4.008337263   -8.677870054   -0.3186017763
300   2   -8.862010124   -2.236251348   -9.805364445   -1.444066017
301   2   -8.862010124   -0.714547117   6.425767587   0.6007011831
302   2   -8.862010124   0.2844573888   -9.324693902   -0.6558472674
303   2   -8.862010124   0.5881920749   9.155665799   -0.02261942523
304   2   -8.862010124   8.768155957   -3.433735682   -1.589555187
305   2   -8.862010124   3.091746798   -7.664725927   -0.3925086893
306   2   -8.862010124   -5.74478678   -3.285522359   -1.483303425
307   2   -8.862010124   0.380586444   -4.670652102   -1.331918512
308   2   -8.862010124   2.043984245   4.907283551   -1.204377529
309   2   -8.862010124   -3.732117926   -6.310346689   0.1566724109
310   2   -8.862010124   9.004733414   6.766675816   -1.286842665
311   2   -8.862010124   -5.712618783   8.928108434   -0.01238291222
312   2   -8.862010124   -1.288888437   -0.06921774358   -1.186061284
313   2   -8.862010124   -10.20685657   5.012456183   -1.367391933
314   2   -8.862010124   5.651756519   1.876003848   -1.198033754
315   2   -8.862010124   -8.62245206   -10.00101447   -0.9381174261
316   2   -8.862010124   -4.945764217   -5.00263191   -1.060543118
317   2   -8.862010124   -4.103976936   -9.924823671   -1.262886834
318   2   -8.862010124   8.711246074   2.829299587   0.2128621437
319   2   -8.862010124   -2.597709538   -2.128628582   0.581340009
320   2   -8.862010124   4.077444551   -2.320630752   -0.5692422774
321   2   -8.862010124   6.873558403   -9.236738648   0.5357196271
322   2   -8.862010124   -2.094121744   9.214003181   -0.389401426
323   2   -8.862010124   5.524347027   -6.556523946   0.3584308917
324   2   -8.862010124   -4.335072549   -2.175050022   0.4094000309
325   2   -8.862010124   1.681634127   -0.8986127034   -1.020334218
326   2   -8.862010124   1.907505724   -4.28039502   -0.5030027972
327   2   -8.862010124   -0.1883675651   7.729563996   -0.8294364889
328   2   -8.862010124   -7.890813547   1.883638748   0.525921249
329   2   -8.862010124   4.965021858   -8.26584138   -0.09926568801
330   2   -8.862010124   5.80206091   9.127282484   -0.2743715263
331   2   -8.862010124   -5.449236126   1.707070587   -0.3757881481
332   2   -8.862010124   8.952558362   -3.625991859   0.5859281224
333   2   -8.862010124   -4.044157201   1.005904866   -1.160271682
334   2   -8.862010124   6.963438916   7.364386547   -1.105560022
335   2   -8.862010124   1.704545258   3.69290836   -1.283881164
336   2   -8.862010124   2.072336754   -8.708641124   -1.388383358
337   2   -8.862010124   -3.623659267   4.008060694   -1.065712289
338   2   -8.862010124   -9.666210684   -9.262655579   -1.108130828
339   2   -8.862010124   -7.774263251   -1.257361218   -1.076131535
340   2   -8.862010124   3.748263236   -4.367447249   -1.422584683
341   2   -8.862010124   -1.14691857   1.61261519   -1.45886897
342   2   -8.862010124   3.492232686   -1.177610719   -1.586905467
343   2   -8.862010124   -1.888675543   -8.514528426   -0.7665042306
344   2   -8.862010124   -5.522372596   -1.311452866   -1.405115305
345   2   -8.862010124   1.180711438   5.980874512   -1.574400495
346   2   -8.862010124   -6.94645686   -8.024518829   -1.195432137
347   2   -8.862010124   8.234954039   -3.804777384   -0.557800328
348   2   -8.862010124   4.17142285   -5.06541708   -0.470494503
349   2   -8.862010124   0.07413774841   -5.495467634   0.2782782341
350   2   -8.862010124   -8.058782837   2.283003025   -1.202840972
351   2   -8.862010124   -6.51076616   -5.464200047   -0.902157304
352   2   -8.862010124   -6.948820258   8.457703984   -1.097048473
353   2   -8.862010124   5.820770462   -7.643977379   0.2367811436
354   2   -8.862010124   3.189174566   3.567621732   0.4853365625
355   2   -8.862010124   -0.5125084752   -2.690420855   0.5315770926
356   2   -8.862010124   0.2253224978   -7.989887138   0.1223162976
357   2   -8.862010124   5.860129453   -1.555171845   0.3253470398
358   2   -8.862010124   6.454429895   1.898657795   0.2961610986
359   2   -8.862010124   5.35293276   -9.900772892   -1.256783906
360   2   -8.862010124   -5.299791147   -8.520937976   -0.1436620517
361   2   -8.862010124   -3.262696374   0.2254863253   -1.282051417
362   2   -8.862010124   4.552286039   2.512437469   0.1878060756
363   2   -8.862010124   -1.369950346   7.711418078   -0.8982459863
364   2   -8.862010124   -6.486657971   1.444265634   -1.111688775
365   2   -8.862010124   0.9461654042   -3.615901905   -0.9845371728
366   2   -8.862010124   3.090399624   -4.285474537   -0.001256359498
367   2   -8.862010124   -5.440985743   3.071573653   -1.058346288
368   2   -8.862010124   -8.149358216   1.387773077   -0.3219741206
369   2   -8.862010124   5.717165076   -7.592254216   -1.331035312
370   2   -8.862010124   -2.266604112   -3.02683862   -0.2186923085
371   2   -8.862010124   2.579102625   9.160951438   0.2089909245
372   2   -8.862010124   3.040154018   2.261494489   0.4023736375
373   2   -8.862010124   1.150000947   1.32570619   -0.518540302
374   2   -8.862010124   -0.2097224945   -3.713110729   -1.496690084
375   2   -8.862010124   -2.614889771   -4.666208853   0.164093015
376   2   -8.862010124   3.46607376   7.169960958   0.3913852069
377   2   -8.862010124   -5.797284933   2.127350845   -1.465364244
378   2   -8.862010124   8.985823479   4.799362536   0.001037608126
379   2   -8.862010124   7.111208866   -6.168941423   -0.518467453
380   2   -8.862010124   -7.812974476   8.732080997   0.2770285717
381   2   -8.862010124   9.103472691   1.67911679   -0.1462582141
382   2   -8.862010124   3.079078428   -7.392654006   -1.512505951
383   2   -8.862010124   -5.64841672   -9.151389459   0.5779352249
384   2   -8.862010124   -8.791824364   -2.80809693   -0.6009865188
385   2   -8.862010124   9.081149405   -4.373193725   -0.8180360402
386   2   -8.862010124   5.262878946   3.383607585   -1.393197229
387   2   -8.862010124   -9.829891631   2.216795577   -0.885579444
388   2   -8.862010124   -6.235302395   3.841250065   -0.4214342397
389   2   -8.862010124   -2.016688696   -5.2489775   -1.402063037
390   2   -8.862010124   -1.181567587   -2.046872618   -0.03803080827
391   2   -8.862010124   -4.319031697   7.948252281   0.5439947115
392   2   -8.862010124   -5.811724604   -5.325102658   0.5394859974
393   2   -8.862010124   0.7428035215   1.644383546   -1.525107176
394   2   -8.862010124   -2.602706925   7.254407041   -0.9296683322
395   2   -8.862010124   -8.233226305   -7.990501492   -1.588181273
396   2   -8.862010124   -7.273987722   -2.440918039   -0.9620389151
397   2   -8.862010124   7.758474072   3.466706327   0.1256882946
398   2   -8.862010124   5.271111135   3.438784993   0.2287713617
399   2   -8.862010124   3.072906987   8.351775641   -1.376794395
400   2   -8.862010124   -10.17840394   -4.552927856   -0.9050594249
401   2   -8.862010124   0.8378961588   4.218674626   -0.7209249789
402   2   -8.862010124   3.117243494   -1.975284999   -0.9732943523
403   2   -8.862010124   -0.7971706423   3.202805716   -1.543491515
404   2   -8.862010124   2.662214141   7.064920037   -1.292204227
405   2   -8.862010124   9.132884956   -9.672098407   -0.2667526177
406   2   -8.862010124   -0.7979119403   -7.796490437   0.4467807886
407   2   -8.862010124   -2.13190945   8.69212195   -1.353289509
408   2   -8.862010124   8.795340884   -8.546158045   0.5256248963
409   2   -8.862010124   8.319493589   7.099162413   0.5634639929
410   2   -8.862010124   0.9699334364   5.572758782   0.5901966885
411   2   -8.862010124   -0.4464757574   2.819307361   0.5267789921
412   2   -8.862010124   -5.919576596   -9.308065625   -1.088163782
413   2   -8.862010124   -0.05959286189   9.007750673   -1.030605544
414   2   -8.862010124   2.018694767   9.089319896   -0.7725014767
415   2   -8.862010124   4.423619877   7.457177584   -0.2151056444
416   2   -8.862010124   -3.472185332   2.238569899   0.5429108475
417   2   -8.862010124   -4.108638395   -7.550836768   -0.1100300425
418   2   -8.862010124   -7.484545728   -0.1322116261   -1.571999993
419   2   -8.862010124   -4.545594253   8.780246099   -1.489387431
420   2   -8.862010124   6.388067398   -0.9973597588   -1.552990494
421   2   -8.862010124   0.987360775   0.6604196242   -1.433548962
422   2   -8.862010124   4.096940049   -9.979833337   -1.243308825
423   2   -8.862010124   0.4670644982   2.956773372   -1.346630204
424   2   -8.862010124   -7.354191929   -9.956834937   -1.595277728
425  3   0   -10.22812235  -10.22812235  2.100840336
426  3   0   -9.798997458  -10.22812235  2.100840336
427  3   0   -9.369872564  -10.22812235  2.100840336
428  3   0   -8.94074767  -10.22812235  2.100840336
429  3   0   -8.511622776  -10.22812235  2.100840336
430  3   0   -8.082497882  -10.22812235  2.100840336
431  3   0   -7.653372987  -10.22812235  2.100840336
432  3   0   -7.224248093  -10.22812235  2.100840336
433  3   0   -6.795123199  -10.22812235  2.100840336
434  3   0   -6.365998305  -10.22812235  2.100840336
435  3   0   -5.936873411  -10.22812235  2.100840336
436  3   0   -5.507748517  -10.22812235  2.100840336
437  3   0   -5.078623623  -10.22812235  2.100840336
438  3   0   -4.649498729  -10.22812235  2.100840336
439  3   0   -4.220373835  -10.22812235  2.100840336
440  3   0   -3.791248941  -10.22812235  2.100840336
441  3   0   -3.362124047  -10.22812235  2.100840336
442  3   0   -2.932999153  -10.22812235  2.100840336
443  3   0   -2.503874259  -10.22812235  2.100840336
444  3   0   -2.074749364  -10.22812235  2.100840336
445  3   0   -1.64562447  -10.22812235  2.100840336
446  3   0   -1.216499576  -10.22812235  2.100840336
447  3   0   -0.7873746822  -10.22812235  2.100840336
448  3   0   -0.3582497882  -10.22812235  2.100840336
449  3   0   0.07087510592  -10.22812235  2.100840336
450  3   0   0.5  -10.22812235  2.100840336
451  3   0   0.9291248941  -10.22812235  2.100840336
452  3   0   1.358249788  -10.22812235  2.100840336
453  3   0   1.787374682  -10.22812235  2.100840336
454  3   0   2.216499576  -10.22812235  2.100840336