ITEM: TIMESTEP
0
ITEM: NUMBER OF ATOMS
441
ITEM: BOX BOUNDS
-21.4562	21.4562
-21.4562	21.4562
-4.20168	4.20168
ITEM: ATOMS index type x y z
1  1  -20.4562       -20.4562       -4.20168
2  1  -18.4562       -20.4562       -4.20168
3  1  -16.4562       -20.4562       -4.20168
4  1  -14.4562       -20.4562       -4.20168
5  1  -12.4562       -20.4562       -4.20168
6  1  -10.4562       -20.4562       -4.20168
7  1  -8.45624       -20.4562       -4.20168
8  1  -6.45624       -20.4562       -4.20168
9  1  -4.45624       -20.4562       -4.20168
10  1  -2.45624       -20.4562       -4.20168
11  1  -0.456245       -20.4562       -4.20168
12  1  1.54376       -20.4562       -4.20168
13  1  3.54376       -20.4562       -4.20168
14  1  5.54376       -20.4562       -4.20168
15  1  7.54376       -20.4562       -4.20168
16  1  9.54376       -20.4562       -4.20168
17  1  11.5438       -20.4562       -4.20168
18  1  13.5438       -20.4562       -4.20168
19  1  15.5438       -20.4562       -4.20168
20  1  17.5438       -20.4562       -4.20168
21  1  19.5438       -20.4562       -4.20168
22  1  -20.4562       -18.4562       -4.20168
23  1  -18.4562       -18.4562       -4.20168
24  1  -16.4562       -18.4562       -4.20168
25  1  -14.4562       -18.4562       -4.20168
26  1  -12.4562       -18.4562       -4.20168
27  1  -10.4562       -18.4562       -4.20168
28  1  -8.45624       -18.4562       -4.20168
29  1  -6.45624       -18.4562       -4.20168
30  1  -4.45624       -18.4562       -4.20168
31  1  -2.45624       -18.4562       -4.20168
32  1  -0.456245       -18.4562       -4.20168
33  1  1.54376       -18.4562       -4.20168
34  1  3.54376       -18.4562       -4.20168
35  1  5.54376       -18.4562       -4.20168
36  1  7.54376       -18.4562       -4.20168
37  1  9.54376       -18.4562       -4.20168
38  1  11.5438       -18.4562       -4.20168
39  1  13.5438       -18.4562       -4.20168
40  1  15.5438       -18.4562       -4.20168
41  1  17.5438       -18.4562       -4.20168
42  1  19.5438       -18.4562       -4.20168
43  1  -20.4562       -16.4562       -4.20168
44  1  -18.4562       -16.4562       -4.20168
45  1  -16.4562       -16.4562       -4.20168
46  1  -14.4562       -16.4562       -4.20168
47  1  -12.4562       -16.4562       -4.20168
48  1  -10.4562       -16.4562       -4.20168
49  1  -8.45624       -16.4562       -4.20168
50  1  -6.45624       -16.4562       -4.20168
51  1  -4.45624       -16.4562       -4.20168
52  1  -2.45624       -16.4562       -4.20168
53  1  -0.456245       -16.4562       -4.20168
54  1  1.54376       -16.4562       -4.20168
55  1  3.54376       -16.4562       -4.20168
56  1  5.54376       -16.4562       -4.20168
57  1  7.54376       -16.4562       -4.20168
58  1  9.54376       -16.4562       -4.20168
59  1  11.5438       -16.4562       -4.20168
60  1  13.5438       -16.4562       -4.20168
61  1  15.5438       -16.4562       -4.20168
62  1  17.5438       -16.4562       -4.20168
63  1  19.5438       -16.4562       -4.20168
64  1  -20.4562       -14.4562       -4.20168
65  1  -18.4562       -14.4562       -4.20168
66  1  -16.4562       -14.4562       -4.20168
67  1  -14.4562       -14.4562       -4.20168
68  1  -12.4562       -14.4562       -4.20168
69  1  -10.4562       -14.4562       -4.20168
70  1  -8.45624       -14.4562       -4.20168
71  1  -6.45624       -14.4562       -4.20168
72  1  -4.45624       -14.4562       -4.20168
73  1  -2.45624       -14.4562       -4.20168
74  1  -0.456245       -14.4562       -4.20168
75  1  1.54376       -14.4562       -4.20168
76  1  3.54376       -14.4562       -4.20168
77  1  5.54376       -14.4562       -4.20168
78  1  7.54376       -14.4562       -4.20168
79  1  9.54376       -14.4562       -4.20168
80  1  11.5438       -14.4562       -4.20168
81  1  13.5438       -14.4562       -4.20168
82  1  15.5438       -14.4562       -4.20168
83  1  17.5438       -14.4562       -4.20168
84  1  19.5438       -14.4562       -4.20168
85  1  -20.4562       -12.4562       -4.20168
86  1  -18.4562       -12.4562       -4.20168
87  1  -16.4562       -12.4562       -4.20168
88  1  -14.4562       -12.4562       -4.20168
89  1  -12.4562       -12.4562       -4.20168
90  1  -10.4562       -12.4562       -4.20168
91  1  -8.45624       -12.4562       -4.20168
92  1  -6.45624       -12.4562       -4.20168
93  1  -4.45624       -12.4562       -4.20168
94  1  -2.45624       -12.4562       -4.20168
95  1  -0.456245       -12.4562       -4.20168
96  1  1.54376       -12.4562       -4.20168
97  1  3.54376       -12.4562       -4.20168
98  1  5.54376       -12.4562       -4.20168
99  1  7.54376       -12.4562       -4.20168
100  1  9.54376       -12.4562       -4.20168
101  1  11.5438       -12.4562       -4.20168
102  1  13.5438       -12.4562       -4.20168
103  1  15.5438       -12.4562       -4.20168
104  1  17.5438       -12.4562       -4.20168
105  1  19.5438       -12.4562       -4.20168
106  1  -20.4562       -10.4562       -4.20168
107  1  -18.4562       -10.4562       -4.20168
108  1  -16.4562       -10.4562       -4.20168
109  1  -14.4562       -10.4562       -4.20168
110  1  -12.4562       -10.4562       -4.20168
111  1  -10.4562       -10.4562       -4.20168
112  1  -8.45624       -10.4562       -4.20168
113  1  -6.45624       -10.4562       -4.20168
114  1  -4.45624       -10.4562       -4.20168
115  1  -2.45624       -10.4562       -4.20168
116  1  -0.456245       -10.4562       -4.20168
117  1  1.54376       -10.4562       -4.20168
118  1  3.54376       -10.4562       -4.20168
119  1  5.54376       -10.4562       -4.20168
120  1  7.54376       -10.4562       -4.20168
121  1  9.54376       -10.4562       -4.20168
122  1  11.5438       -10.4562       -4.20168
123  1  13.5438       -10.4562       -4.20168
124  1  15.5438       -10.4562       -4.20168
125  1  17.5438       -10.4562       -4.20168
126  1  19.5438       -10.4562       -4.20168
127  1  -20.4562       -8.45624       -4.20168
128  1  -18.4562       -8.45624       -4.20168
129  1  -16.4562       -8.45624       -4.20168
130  1  -14.4562       -8.45624       -4.20168
131  1  -12.4562       -8.45624       -4.20168
132  1  -10.4562       -8.45624       -4.20168
133  1  -8.45624       -8.45624       -4.20168
134  1  -6.45624       -8.45624       -4.20168
135  1  -4.45624       -8.45624       -4.20168
136  1  -2.45624       -8.45624       -4.20168
137  1  -0.456245       -8.45624       -4.20168
138  1  1.54376       -8.45624       -4.20168
139  1  3.54376       -8.45624       -4.20168
140  1  5.54376       -8.45624       -4.20168
141  1  7.54376       -8.45624       -4.20168
142  1  9.54376       -8.45624       -4.20168
143  1  11.5438       -8.45624       -4.20168
144  1  13.5438       -8.45624       -4.20168
145  1  15.5438       -8.45624       -4.20168
146  1  17.5438       -8.45624       -4.20168
147  1  19.5438       -8.45624       -4.20168
148  1  -20.4562       -6.45624       -4.20168
149  1  -18.4562       -6.45624       -4.20168
150  1  -16.4562       -6.45624       -4.20168
151  1  -14.4562       -6.45624       -4.20168
152  1  -12.4562       -6.45624       -4.20168
153  1  -10.4562       -6.45624       -4.20168
154  1  -8.45624       -6.45624       -4.20168
155  1  -6.45624       -6.45624       -4.20168
156  1  -4.45624       -6.45624       -4.20168
157  1  -2.45624       -6.45624       -4.20168
158  1  -0.456245       -6.45624       -4.20168
159  1  1.54376       -6.45624       -4.20168
160  1  3.54376       -6.45624       -4.20168
161  1  5.54376       -6.45624       -4.20168
162  1  7.54376       -6.45624       -4.20168
163  1  9.54376       -6.45624       -4.20168
164  1  11.5438       -6.45624       -4.20168
165  1  13.5438       -6.45624       -4.20168
166  1  15.5438       -6.45624       -4.20168
167  1  17.5438       -6.45624       -4.20168
168  1  19.5438       -6.45624       -4.20168
169  1  -20.4562       -4.45624       -4.20168
170  1  -18.4562       -4.45624       -4.20168
171  1  -16.4562       -4.45624       -4.20168
172  1  -14.4562       -4.45624       -4.20168
173  1  -12.4562       -4.45624       -4.20168
174  1  -10.4562       -4.45624       -4.20168
175  1  -8.45624       -4.45624       -4.20168
176  1  -6.45624       -4.45624       -4.20168
177  1  -4.45624       -4.45624       -4.20168
178  1  -2.45624       -4.45624       -4.20168
179  1  -0.456245       -4.45624       -4.20168
180  1  1.54376       -4.45624       -4.20168
181  1  3.54376       -4.45624       -4.20168
182  1  5.54376       -4.45624       -4.20168
183  1  7.54376       -4.45624       -4.20168
184  1  9.54376       -4.45624       -4.20168
185  1  11.5438       -4.45624       -4.20168
186  1  13.5438       -4.45624       -4.20168
187  1  15.5438       -4.45624       -4.20168
188  1  17.5438       -4.45624       -4.20168
189  1  19.5438       -4.45624       -4.20168
190  1  -20.4562       -2.45624       -4.20168
191  1  -18.4562       -2.45624       -4.20168
192  1  -16.4562       -2.45624       -4.20168
193  1  -14.4562       -2.45624       -4.20168
194  1  -12.4562       -2.45624       -4.20168
195  1  -10.4562       -2.45624       -4.20168
196  1  -8.45624       -2.45624       -4.20168
197  1  -6.45624       -2.45624       -4.20168
198  1  -4.45624       -2.45624       -4.20168
199  1  -2.45624       -2.45624       -4.20168
200  1  -0.456245       -2.45624       -4.20168
201  1  1.54376       -2.45624       -4.20168
202  1  3.54376       -2.45624       -4.20168
203  1  5.54376       -2.45624       -4.20168
204  1  7.54376       -2.45624       -4.20168
205  1  9.54376       -2.45624       -4.20168
206  1  11.5438       -2.45624       -4.20168
207  1  13.5438       -2.45624       -4.20168
208  1  15.5438       -2.45624       -4.20168
209  1  17.5438       -2.45624       -4.20168
210  1  19.5438       -2.45624       -4.20168
211  1  -20.4562      -0.456245       -4.20168
212  1  -18.4562      -0.456245       -4.20168
213  1  -16.4562      -0.456245       -4.20168
214  1  -14.4562      -0.456245       -4.20168
215  1  -12.4562      -0.456245       -4.20168
216  1  -10.4562      -0.456245       -4.20168
217  1  -8.45624      -0.456245       -4.20168
218  1  -6.45624      -0.456245       -4.20168
219  1  -4.45624      -0.456245       -4.20168
220  1  -2.45624      -0.456245       -4.20168
221  1  -0.456245      -0.456245       -4.20168
222  1  1.54376      -0.456245       -4.20168
223  1  3.54376      -0.456245       -4.20168
224  1  5.54376      -0.456245       -4.20168
225  1  7.54376      -0.456245       -4.20168
226  1  9.54376      -0.456245       -4.20168
227  1  11.5438      -0.456245       -4.20168
228  1  13.5438      -0.456245       -4.20168
229  1  15.5438      -0.456245       -4.20168
230  1  17.5438      -0.456245       -4.20168
231  1  19.5438      -0.456245       -4.20168
232  1  -20.4562        1.54376       -4.20168
233  1  -18.4562        1.54376       -4.20168
234  1  -16.4562        1.54376       -4.20168
235  1  -14.4562        1.54376       -4.20168
236  1  -12.4562        1.54376       -4.20168
237  1  -10.4562        1.54376       -4.20168
238  1  -8.45624        1.54376       -4.20168
239  1  -6.45624        1.54376       -4.20168
240  1  -4.45624        1.54376       -4.20168
241  1  -2.45624        1.54376       -4.20168
242  1  -0.456245        1.54376       -4.20168
243  1  1.54376        1.54376       -4.20168
244  1  3.54376        1.54376       -4.20168
245  1  5.54376        1.54376       -4.20168
246  1  7.54376        1.54376       -4.20168
247  1  9.54376        1.54376       -4.20168
248  1  11.5438        1.54376       -4.20168
249  1  13.5438        1.54376       -4.20168
250  1  15.5438        1.54376       -4.20168
251  1  17.5438        1.54376       -4.20168
252  1  19.5438        1.54376       -4.20168
253  1  -20.4562        3.54376       -4.20168
254  1  -18.4562        3.54376       -4.20168
255  1  -16.4562        3.54376       -4.20168
256  1  -14.4562        3.54376       -4.20168
257  1  -12.4562        3.54376       -4.20168
258  1  -10.4562        3.54376       -4.20168
259  1  -8.45624        3.54376       -4.20168
260  1  -6.45624        3.54376       -4.20168
261  1  -4.45624        3.54376       -4.20168
262  1  -2.45624        3.54376       -4.20168
263  1  -0.456245        3.54376       -4.20168
264  1  1.54376        3.54376       -4.20168
265  1  3.54376        3.54376       -4.20168
266  1  5.54376        3.54376       -4.20168
267  1  7.54376        3.54376       -4.20168
268  1  9.54376        3.54376       -4.20168
269  1  11.5438        3.54376       -4.20168
270  1  13.5438        3.54376       -4.20168
271  1  15.5438        3.54376       -4.20168
272  1  17.5438        3.54376       -4.20168
273  1  19.5438        3.54376       -4.20168
274  1  -20.4562        5.54376       -4.20168
275  1  -18.4562        5.54376       -4.20168
276  1  -16.4562        5.54376       -4.20168
277  1  -14.4562        5.54376       -4.20168
278  1  -12.4562        5.54376       -4.20168
279  1  -10.4562        5.54376       -4.20168
280  1  -8.45624        5.54376       -4.20168
281  1  -6.45624        5.54376       -4.20168
282  1  -4.45624        5.54376       -4.20168
283  1  -2.45624        5.54376       -4.20168
284  1  -0.456245        5.54376       -4.20168
285  1  1.54376        5.54376       -4.20168
286  1  3.54376        5.54376       -4.20168
287  1  5.54376        5.54376       -4.20168
288  1  7.54376        5.54376       -4.20168
289  1  9.54376        5.54376       -4.20168
290  1  11.5438        5.54376       -4.20168
291  1  13.5438        5.54376       -4.20168
292  1  15.5438        5.54376       -4.20168
293  1  17.5438        5.54376       -4.20168
294  1  19.5438        5.54376       -4.20168
295  1  -20.4562        7.54376       -4.20168
296  1  -18.4562        7.54376       -4.20168
297  1  -16.4562        7.54376       -4.20168
298  1  -14.4562        7.54376       -4.20168
299  1  -12.4562        7.54376       -4.20168
300  1  -10.4562        7.54376       -4.20168
301  1  -8.45624        7.54376       -4.20168
302  1  -6.45624        7.54376       -4.20168
303  1  -4.45624        7.54376       -4.20168
304  1  -2.45624        7.54376       -4.20168
305  1  -0.456245        7.54376       -4.20168
306  1  1.54376        7.54376       -4.20168
307  1  3.54376        7.54376       -4.20168
308  1  5.54376        7.54376       -4.20168
309  1  7.54376        7.54376       -4.20168
310  1  9.54376        7.54376       -4.20168
311  1  11.5438        7.54376       -4.20168
312  1  13.5438        7.54376       -4.20168
313  1  15.5438        7.54376       -4.20168
314  1  17.5438        7.54376       -4.20168
315  1  19.5438        7.54376       -4.20168
316  1  -20.4562        9.54376       -4.20168
317  1  -18.4562        9.54376       -4.20168
318  1  -16.4562        9.54376       -4.20168
319  1  -14.4562        9.54376       -4.20168
320  1  -12.4562        9.54376       -4.20168
321  1  -10.4562        9.54376       -4.20168
322  1  -8.45624        9.54376       -4.20168
323  1  -6.45624        9.54376       -4.20168
324  1  -4.45624        9.54376       -4.20168
325  1  -2.45624        9.54376       -4.20168
326  1  -0.456245        9.54376       -4.20168
327  1  1.54376        9.54376       -4.20168
328  1  3.54376        9.54376       -4.20168
329  1  5.54376        9.54376       -4.20168
330  1  7.54376        9.54376       -4.20168
331  1  9.54376        9.54376       -4.20168
332  1  11.5438        9.54376       -4.20168
333  1  13.5438        9.54376       -4.20168
334  1  15.5438        9.54376       -4.20168
335  1  17.5438        9.54376       -4.20168
336  1  19.5438        9.54376       -4.20168
337  1  -20.4562        11.5438       -4.20168
338  1  -18.4562        11.5438       -4.20168
339  1  -16.4562        11.5438       -4.20168
340  1  -14.4562        11.5438       -4.20168
341  1  -12.4562        11.5438       -4.20168
342  1  -10.4562        11.5438       -4.20168
343  1  -8.45624        11.5438       -4.20168
344  1  -6.45624        11.5438       -4.20168
345  1  -4.45624        11.5438       -4.20168
346  1  -2.45624        11.5438       -4.20168
347  1  -0.456245        11.5438       -4.20168
348  1  1.54376        11.5438       -4.20168
349  1  3.54376        11.5438       -4.20168
350  1  5.54376        11.5438       -4.20168
351  1  7.54376        11.5438       -4.20168
352  1  9.54376        11.5438       -4.20168
353  1  11.5438        11.5438       -4.20168
354  1  13.5438        11.5438       -4.20168
355  1  15.5438        11.5438       -4.20168
356  1  17.5438        11.5438       -4.20168
357  1  19.5438        11.5438       -4.20168
358  1  -20.4562        13.5438       -4.20168
359  1  -18.4562        13.5438       -4.20168
360  1  -16.4562        13.5438       -4.20168
361  1  -14.4562        13.5438       -4.20168
362  1  -12.4562        13.5438       -4.20168
363  1  -10.4562        13.5438       -4.20168
364  1  -8.45624        13.5438       -4.20168
365  1  -6.45624        13.5438       -4.20168
366  1  -4.45624        13.5438       -4.20168
367  1  -2.45624        13.5438       -4.20168
368  1  -0.456245        13.5438       -4.20168
369  1  1.54376        13.5438       -4.20168
370  1  3.54376        13.5438       -4.20168
371  1  5.54376        13.5438       -4.20168
372  1  7.54376        13.5438       -4.20168
373  1  9.54376        13.5438       -4.20168
374  1  11.5438        13.5438       -4.20168
375  1  13.5438        13.5438       -4.20168
376  1  15.5438        13.5438       -4.20168
377  1  17.5438        13.5438       -4.20168
378  1  19.5438        13.5438       -4.20168
379  1  -20.4562        15.5438       -4.20168
380  1  -18.4562        15.5438       -4.20168
381  1  -16.4562        15.5438       -4.20168
382  1  -14.4562        15.5438       -4.20168
383  1  -12.4562        15.5438       -4.20168
384  1  -10.4562        15.5438       -4.20168
385  1  -8.45624        15.5438       -4.20168
386  1  -6.45624        15.5438       -4.20168
387  1  -4.45624        15.5438       -4.20168
388  1  -2.45624        15.5438       -4.20168
389  1  -0.456245        15.5438       -4.20168
390  1  1.54376        15.5438       -4.20168
391  1  3.54376        15.5438       -4.20168
392  1  5.54376        15.5438       -4.20168
393  1  7.54376        15.5438       -4.20168
394  1  9.54376        15.5438       -4.20168
395  1  11.5438        15.5438       -4.20168
396  1  13.5438        15.5438       -4.20168
397  1  15.5438        15.5438       -4.20168
398  1  17.5438        15.5438       -4.20168
399  1  19.5438        15.5438       -4.20168
400  1  -20.4562        17.5438       -4.20168
401  1  -18.4562        17.5438       -4.20168
402  1  -16.4562        17.5438       -4.20168
403  1  -14.4562        17.5438       -4.20168
404  1  -12.4562        17.5438       -4.20168
405  1  -10.4562        17.5438       -4.20168
406  1  -8.45624        17.5438       -4.20168
407  1  -6.45624        17.5438       -4.20168
408  1  -4.45624        17.5438       -4.20168
409  1  -2.45624        17.5438       -4.20168
410  1  -0.456245        17.5438       -4.20168
411  1  1.54376        17.5438       -4.20168
412  1  3.54376        17.5438       -4.20168
413  1  5.54376        17.5438       -4.20168
414  1  7.54376        17.5438       -4.20168
415  1  9.54376        17.5438       -4.20168
416  1  11.5438        17.5438       -4.20168
417  1  13.5438        17.5438       -4.20168
418  1  15.5438        17.5438       -4.20168
419  1  17.5438        17.5438       -4.20168
420  1  19.5438        17.5438       -4.20168
421  1  -20.4562        19.5438       -4.20168
422  1  -18.4562        19.5438       -4.20168
423  1  -16.4562        19.5438       -4.20168
424  1  -14.4562        19.5438       -4.20168
425  1  -12.4562        19.5438       -4.20168
426  1  -10.4562        19.5438       -4.20168
427  1  -8.45624        19.5438       -4.20168
428  1  -6.45624        19.5438       -4.20168
429  1  -4.45624        19.5438       -4.20168
430  1  -2.45624        19.5438       -4.20168
431  1  -0.456245        19.5438       -4.20168
432  1  1.54376        19.5438       -4.20168
433  1  3.54376        19.5438       -4.20168
434  1  5.54376        19.5438       -4.20168
435  1  7.54376        19.5438       -4.20168
436  1  9.54376        19.5438       -4.20168
437  1  11.5438        19.5438       -4.20168
438  1  13.5438        19.5438       -4.20168
439  1  15.5438        19.5438       -4.20168
440  1  17.5438        19.5438       -4.20168
441  1  19.5438        19.5438       -4.20168
