ITEM: TIMESTEP
999
ITEM: NUMBER OF ATOMS
424
ITEM: BOX BOUNDS
-21.4562	21.4562
-21.4562	21.4562
-4.20168	4.20168
ITEM: ATOMS index type x y z
     0	1	 19.1117	-10.9869	-0.0180076
     1	1	 9.12815	 11.1055	 1.40198
     2	1	-7.81571	 12.4669	-0.721215
     3	1	-14.2383	-1.10972	-0.309122
     4	1	 -11.038	-11.6053	-3.00069
     5	1	 3.20669	 16.0315	 0.69835
     6	1	-0.0430411	 1.91701	-2.28434
     7	1	-8.86125	-15.9523	-2.93538
     8	1	 6.04098	 9.36931	0.583401
     9	1	 -15.482	-15.0331	-0.426218
    10	1	-11.9692	-8.70324	-2.91646
    11	1	-15.2366	 2.20074	-2.94671
    12	1	-7.91433	 15.8082	-1.47813
    13	1	-1.86104	-14.1049	-0.791879
    14	1	 8.78441	 -13.713	-0.723019
    15	1	-18.4909	 -7.1534	-0.44467
    16	1	-4.91455	-14.0347	-0.369099
    17	1	-1.30269	 -17.066	-0.873278
    18	1	-16.1667	-2.62763	0.514629
    19	1	 -4.0509	 11.1794	 1.25721
    20	1	-4.35918	 5.08871	-0.803522
    21	1	-17.7399	 3.85236	0.177349
    22	1	0.0783732	 9.96631	-2.22663
    23	1	-19.1615	-7.21333	-2.75554
    24	1	-10.9236	-5.19968	0.226654
    25	1	 4.90977	 5.70233	-0.204686
    26	1	 2.57994	   9.459	 1.83314
    27	1	 7.89542	-16.4983	-2.94358
    28	1	-19.1874	 12.7194	-3.23213
    29	1	-7.95942	-13.3282	-2.74968
    30	1	 5.65401	 7.55165	-2.05861
    31	1	 16.9055	-13.1336	0.713071
    32	1	-9.89369	 5.65216	 1.37524
    33	1	-9.87261	-12.5591	0.211728
    34	1	 7.17732	-18.3822	-0.596671
    35	1	 12.7766	-9.10744	0.566371
    36	1	 14.9104	 5.84192	-3.18136
    37	1	-3.25404	-7.11762	-2.62784
    38	1	 14.7194	-19.4742	-2.44929
    39	1	-8.14895	-7.47287	-0.985907
    40	1	 1.47364	-3.09181	-2.12094
    41	1	-5.40797	-2.23576	 -2.9327
    42	1	  12.517	-13.2958	-0.904132
    43	1	-13.6571	 18.1131	0.900124
    44	1	-15.2435	-10.0645	-0.950318
    45	1	 -5.6053	 9.39904	-1.81095
    46	1	 9.29563	0.269584	-2.48921
    47	1	  11.744	 16.4305	 0.93312
    48	1	 7.33932	 2.39424	 1.31031
    49	1	 7.67822	-2.70493	0.652175
    50	1	-11.4653	-20.3309	-0.0820216
    51	1	 9.52416	-2.03883	-0.471131
    52	1	 3.24944	-15.5597	-1.40983
    53	1	 5.33487	-15.7612	  1.8224
    54	1	-14.7501	 6.44469	-2.09635
    55	1	-5.07053	 3.98702	 1.31111
    56	1	  2.5193	-19.5577	-2.12705
    57	1	 4.16033	-0.192561	-1.67467
    58	1	 4.69118	-20.0655	-2.83904
    59	1	 -17.896	 10.7607	-1.27863
    60	1	-5.60955	-16.0672	-1.75253
    61	1	-14.7107	-4.08779	-0.00678898
    62	1	  12.392	-18.7403	-2.84991
    63	1	 2.92788	 13.7534	 -1.1532
    64	1	 17.0037	 14.3716	-1.65077
    65	1	-19.3361	 7.87798	-1.90848
    66	1	0.350899	-19.7628	0.984247
    67	1	 12.7486	 12.5556	0.0699692
    68	1	 1.79329	 10.2186	-0.943111
    69	1	-5.42353	 5.41097	 -2.9378
    70	1	-1.86188	-1.41918	-0.669889
    71	1	 18.4684	-10.0018	-2.92245
    72	1	-2.00807	 7.37316	0.188747
    73	1	-16.3816	 15.6604	-0.803169
    74	1	 12.1992	  2.1524	-3.06069
    75	1	-18.8311	  16.065	-3.08847
    76	1	 17.7404	-0.660994	0.735387
    77	1	 11.7153	 5.94763	 -1.8222
    78	1	 6.73632	 4.45727	-1.96526
    79	1	 16.1622	  10.624	-2.66819
    80	1	 14.7336	 11.3926	 1.36609
    81	1	-7.28688	 3.89909	-3.20141
    82	1	 4.84717	-2.03808	 1.02337
    83	1	-6.64156	 -10.136	-1.36994
    84	1	 9.17539	-18.7433	0.0933129
    85	1	-4.85409	 12.6269	-0.594397
    86	1	 2.80394	-0.341755	 1.80463
    87	1	  13.257	0.489218	0.494087
    88	1	 14.8517	-2.03436	-1.25911
    89	1	-18.3626	-2.29083	-1.74507
    90	1	-6.19995	 1.57372	-0.896248
    91	1	-6.79283	 -8.4289	-3.05319
    92	1	-15.9676	-12.8236	-1.37399
    93	1	-15.7355	-6.03366	0.129664
    94	1	 7.98445	 6.76548	-1.35415
    95	1	 9.98808	 11.2014	-1.21138
    96	1	 6.72008	 16.7203	-0.334704
    97	1	  1.3281	0.641705	-1.07859
    98	1	  5.3364	-19.9317	 1.56106
    99	1	 15.8375	-18.9003	-0.343349
   100	1	-11.4012	-0.802195	-2.49106
   101	1	-16.8064	-4.50656	-2.78189
   102	1	 14.1878	 18.4605	-1.76358
   103	1	 5.38263	-1.00782	-3.12979
   104	1	 10.7464	-5.77783	 0.54904
   105	1	 10.7571	  2.9034	-1.87818
   106	1	-9.90853	-0.624245	-0.23944
   107	1	-11.1406	-13.7579	-3.12651
   108	1	-15.3735	 9.51965	-2.73064
   109	1	-19.8601	 2.00569	-1.65626
   110	1	-16.4301	-8.54656	0.469732
   111	1	-13.3515	-6.31354	 1.36905
   112	1	 13.7129	-13.0632	-3.04109
   113	1	-4.48295	 16.0513	0.854988
   114	1	-11.6534	0.910161	-1.06579
   115	1	-16.8134	 17.9058	-3.04919
   116	1	-6.52173	 -17.717	0.911448
   117	1	 7.37056	-6.78323	-0.0038487
   118	1	-0.982798	0.453342	-0.61798
   119	1	-9.62756	  3.5047	-2.48815
   120	1	 6.75214	-1.14868	-1.08098
   121	1	 17.3244	-15.2936	-0.725849
   122	1	-9.78247	 12.1963	0.954215
   123	1	-0.933689	 4.33471	-1.46816
   124	1	  12.803	-11.0067	-0.356885
   125	1	0.207277	 2.91919	0.357649
   126	1	0.491994	-1.62546	0.777582
   127	1	 8.44806	-5.26978	 1.22788
   128	1	-11.9489	 5.28578	-0.472055
   129	1	-18.1392	 1.08978	0.917261
   130	1	-10.5447	 12.9488	-1.74993
   131	1	 16.4695	-10.3066	-1.15552
   132	1	-21.2212	 14.9684	 0.60944
   133	1	 11.1061	-19.0354	-1.11065
   134	1	-1.73387	 16.5552	0.572444
   135	1	 11.1678	-9.25198	-2.83539
   136	1	0.0323444	  7.6646	0.220768
   137	1	-1.60146	-3.15031	-3.14998
   138	1	 2.45236	-11.2639	 1.91861
   139	1	-13.8213	 12.2391	 -2.0607
   140	1	 5.96301	-11.0261	-0.00911239
   141	1	 -1.0091	-7.69887	 1.20647
   142	1	-17.6351	 2.24387	-2.78348
   143	1	  1.1055	-5.69075	0.128162
   144	1	 5.13432	-12.4527	-1.63735
   145	1	-20.4227	-5.35355	-0.44191
   146	1	 8.73324	-5.59738	-2.88428
   147	1	 14.9024	-15.0554	-3.11331
   148	1	-19.9652	-16.1424	  1.3533
   149	1	 13.1643	 8.44817	-0.845264
   150	1	-12.3975	-8.66999	-0.41565
   151	1	-1.95493	-9.28647	-0.114122
   152	1	-8.63161	 10.0967	-2.69917
   153	1	-9.85745	-7.86152	-0.0218777
   154	1	 17.2521	-2.35588	-0.672731
   155	1	-1.99666	 12.7205	-3.20188
   156	1	-15.0615	 8.73081	0.416367
   157	1	-1.92958	-19.3303	-0.808929
   158	1	-8.11636	  6.7611	0.203511
   159	1	 -21.143	 12.9117	-1.54419
   160	1	-9.31745	-3.32323	-1.23196
   161	1	 -11.951	 1.75293	 1.68073
   162	1	-20.5426	-12.6931	0.758257
   163	1	 16.9831	-6.01704	-0.792565
   164	1	 10.8701	-0.991466	-1.58896
   165	1	 3.13848	-6.26899	 0.19372
   166	1	 -14.774	 1.63089	0.898387
   167	1	 16.1056	 17.1819	-2.14088
   168	1	-17.5415	 13.6356	0.376677
   169	1	-19.9316	 6.18498	0.0512757
   170	1	-18.1982	 5.61991	-2.24066
   171	1	-3.88126	-14.6752	-2.46539
   172	1	 3.70049	 10.2383	-0.13959
   173	1	-12.8928	-16.4769	-0.415198
   174	1	-11.4397	 9.05165	 1.54467
   175	1	-1.37934	-12.0445	-2.76658
   176	1	0.690281	-16.2864	-2.39143
   177	1	 9.49571	 8.97293	0.0241038
   178	1	 8.52748	 14.0469	-3.23381
   179	1	-15.1254	-17.1973	-0.591174
   180	1	 15.5879	 4.85048	0.770766
   181	1	-4.91956	-2.33218	0.333967
   182	1	 16.8403	 8.13703	-1.03883
   183	1	 7.23588	-16.8411	0.722378
   184	1	 2.95963	 5.60887	-3.10018
   185	1	 17.9674	 16.9402	-3.10638
   186	1	 14.2608	-7.25469	-2.23202
   187	1	-4.41948	 1.41748	-2.36363
   188	1	-19.0952	  18.723	 1.11503
   189	1	-7.72737	 13.3533	-2.67312
   190	1	 13.7267	  16.673	0.503043
   191	1	 5.60001	-6.77037	 -1.8912
   192	1	 1.48216	 5.40691	0.164944
   193	1	-17.7741	 -14.677	-3.09092
   194	1	-16.3595	 7.60831	-1.00392
   195	1	-13.8242	  13.624	0.214805
   196	1	-9.97208	 16.0532	-0.871202
   197	1	 8.28567	-12.0748	-3.12445
   198	1	-18.9615	-19.5949	-0.0541319
   199	1	 7.82904	  18.537	-1.74223
   200	1	-0.111108	 12.5231	0.168532
   201	1	 4.43494	 -4.1424	 1.05421
   202	1	 10.5113	 13.9242	-0.0323193
   203	1	-2.50482	 2.76303	 -1.0479
   204	1	-13.9116	 11.3288	0.437685
   205	1	 17.3577	 12.1238	0.779411
   206	1	-6.49017	-4.08847	-2.43083
   207	1	-20.5426	  14.701	-2.43254
   208	1	 3.50983	  13.252	 1.17475
   209	1	-10.3705	 8.92009	-2.25164
   210	1	 14.1116	-15.4442	0.158483
   211	1	-10.2707	-14.4334	0.399471
   212	-1	-6.10049	-19.8098	-0.824925
   213	-1	 15.0734	-4.05966	0.879819
   214	-1	 18.0438	-17.2579	-2.30481
   215	-1	-16.0724	 11.6984	-0.831034
   216	-1	 6.42588	-4.06641	 1.42245
   217	-1	-0.660601	-13.5761	0.879008
   218	-1	-17.5122	-9.51303	-1.02861
   219	-1	 9.81843	0.686474	0.949431
   220	-1	 12.4268	 10.0852	-2.01005
   221	-1	  13.004	-6.79499	0.636666
   222	-1	 12.6988	-3.00472	-1.21635
   223	-1	  18.818	-2.23595	  -2.469
   224	-1	 11.3131	 8.82045	-2.69028
   225	-1	 -15.194	-13.1812	0.807614
   226	-1	 2.15166	-10.6374	-0.406831
   227	-1	  -18.69	-13.8679	-0.378859
   228	-1	  -4.575	 11.5181	-2.77906
   229	-1	0.602697	-11.4521	 -2.2816
   230	-1	-19.8104	-14.4083	-2.48837
   231	-1	-10.1722	 14.1335	0.0777748
   232	-1	 -6.8204	-6.03721	0.302043
   233	-1	-3.12162	 8.92881	 1.03623
   234	-1	-0.113635	-13.7342	-1.89166
   235	-1	 16.7128	 2.41055	-2.68295
   236	-1	 18.2264	-0.107307	-1.98231
   237	-1	-11.2433	-16.9438	 -2.5984
   238	-1	  3.7129	 15.4873	 -2.2771
   239	-1	 14.6998	-3.63162	-2.82005
   240	-1	-7.60061	 1.92888	0.978342
   241	-1	 5.68175	 11.0363	-2.95239
   242	-1	-6.77719	 18.1664	-1.54772
   243	-1	-12.3764	-2.49848	0.484381
   244	-1	 16.1612	-10.7594	 1.02393
   245	-1	 -1.9222	 10.9176	-2.25166
   246	-1	 17.4131	 5.90001	-2.10554
   247	-1	-0.582973	-3.91593	-1.32249
   248	-1	-8.37052	 4.05057	 -0.3682
   249	-1	-13.0886	  9.1163	-2.62314
   250	-1	-3.55784	-8.40633	-0.920713
   251	-1	-11.8593	 10.6963	-1.35462
   252	-1	 9.74886	-18.0224	-2.42575
   253	-1	-6.00394	-4.06598	-0.377537
   254	-1	-17.6016	-11.5357	-3.03923
   255	-1	 11.9719	 -17.609	0.533187
   256	-1	-6.44942	 11.2414	-1.97036
   257	-1	  5.2125	 2.72957	-2.49071
   258	-1	-7.32168	-0.583883	-0.0711256
   259	-1	 13.1892	 6.78089	 0.33612
   260	-1	-14.6906	 -7.4332	-2.08479
   261	-1	-12.7975	-6.60438	-1.36087
   262	-1	-4.16925	 8.17548	-2.83715
   263	-1	-5.25487	 17.9527	 1.42764
   264	-1	-12.3132	 13.8595	-2.09727
   265	-1	 2.65469	-13.6331	-0.0537513
   266	-1	  4.5042	-9.77412	-3.13899
   267	-1	-4.43727	-4.21915	-2.64811
   268	-1	-18.5684	 18.8091	-1.83086
   269	-1	-18.8287	-11.1741	0.850396
   270	-1	 16.3376	 17.3732	0.130966
   271	-1	-19.7247	-12.1342	-1.79747
   272	-1	 15.9652	 1.28729	0.109271
   273	-1	0.267345	-1.51004	-1.66812
   274	-1	-19.8205	-2.24525	 1.72232
   275	-1	-5.23494	 9.45356	0.770021
   276	-1	 4.69409	-13.2654	0.960015
   277	-1	 15.0091	-6.37993	0.377915
   278	-1	 7.16063	 1.94842	-2.76802
   279	-1	-17.7465	-4.10734	 1.22489
   280	-1	-3.48734	-11.6803	0.180459
   281	-1	-14.9438	-19.4094	-0.479866
   282	-1	 -8.1609	-8.95127	0.495731
   283	-1	 4.87695	 2.97365	-0.504471
   284	-1	-13.0375	 16.1833	-0.201068
   285	-1	 11.8381	-5.39202	-3.08254
   286	-1	 8.09664	 12.6036	-0.813905
   287	-1	-14.1577	-13.7462	-1.13198
   288	-1	 1.09246	-17.5048	-0.37439
   289	-1	-4.47142	 1.01925	 0.55003
   290	-1	-8.80417	-20.1477	0.741828
   291	-1	 11.2265	  4.2969	-0.0962668
   292	-1	 9.38335	-8.06786	-1.73043
   293	-1	 15.3086	 10.2466	-0.742169
   294	-1	 14.2001	 12.3494	-2.38385
   295	-1	-6.21695	 14.5977	0.306419
   296	-1	 17.4382	-20.0877	-1.91506
   297	-1	-15.7875	 10.5276	 1.15164
   298	-1	-7.91363	-17.0097	-0.536211
   299	-1	-4.67301	-19.6407	-2.82849
   300	-1	-2.02059	 12.0103	 1.20581
   301	-1	-0.178391	-18.7804	-1.90185
   302	-1	0.835846	 17.6593	0.211841
   303	-1	 18.1498	-7.30419	 -2.8964
   304	-1	 6.69691	-14.5696	-0.815817
   305	-1	-11.0372	-6.78161	 -3.0178
   306	-1	0.366224	-9.68674	-3.20051
   307	-1	 3.91184	 10.1502	-2.27353
   308	-1	-7.34363	-11.9295	0.157022
   309	-1	 18.1165	 12.7501	-2.75954
   310	-1	-11.3841	 17.7739	0.787115
   311	-1	-2.72627	-0.352138	-2.33545
   312	-1	-20.9009	 10.2466	-1.84845
   313	-1	 12.3122	 4.25725	-3.27329
   314	-1	-16.6764	-19.9998	-1.29353
   315	-1	-9.70144	-9.29399	-2.22624
   316	-1	-8.82928	-20.0309	 -3.2019
   317	-1	 18.0753	 5.99746	0.960877
   318	-1	-5.56186	-4.59254	 2.01052
   319	-1	 8.67359	-4.06262	-0.745021
   320	-1	 13.7128	-19.3505	0.647198
   321	-1	 -3.4795	 19.0442	-1.22535
   322	-1	 10.6415	-13.3779	0.987376
   323	-1	-8.93465	-4.43128	0.877366
   324	-1	 3.56899	-2.31171	-1.69911
   325	-1	 4.15564	-8.71217	-0.757355
   326	-1	0.406565	 15.1792	-1.16155
   327	-1	-15.9527	 4.02942	 1.46823
   328	-1	 9.93819	-16.1112	-0.159373
   329	-1	 11.9704	 17.7571	-0.958373
   330	-1	-10.4827	 3.24675	-0.471978
   331	-1	 18.1915	-6.75945	 1.43048
   332	-1	-7.54136	 1.97374	-2.48782
   333	-1	 13.4965	 14.3591	-2.43272
   334	-1	 3.14342	 7.78003	-2.47789
   335	-1	 3.93613	-16.7027	-2.91071
   336	-1	-7.28587	 8.09529	 -2.2959
   337	-1	-18.5885	-18.8668	-1.93116
   338	-1	-15.2424	-2.68728	-1.65654
   339	-1	 7.30628	-8.29102	 -2.6348
   340	-1	-2.90493	 3.48669	-2.88874
   341	-1	 7.29571	 -2.4857	-2.85956
   342	-1	-3.76826	-17.0281	-1.09485
   343	-1	-11.8202	-3.21767	-3.08611
   344	-1	 2.01198	 12.2672	-2.72808
   345	-1	-13.9509	-16.3764	 -2.1917
   346	-1	 16.2525	-8.24269	-1.68769
   347	-1	 8.89755	-10.3199	-1.32287
   348	-1	-0.337728	-11.5237	0.212154
   349	-1	-16.4865	 4.37763	-2.29173
   350	-1	-12.7733	-10.4435	-1.89305
   351	-1	 -14.376	 16.6438	-2.23875
   352	-1	 11.6325	-15.1214	0.575793
   353	-1	 6.82878	  7.3757	0.630722
   354	-1	-1.23237	-4.65787	 2.08218
   355	-1	0.806578	-15.2616	0.828362
   356	-1	 11.6852	-3.21086	 1.00951
   357	-1	 13.6621	 3.89263	 1.03226
   358	-1	  10.673	-20.1298	-2.95889
   359	-1	-10.0429	-16.6346	-0.163602
   360	-1	-5.98178	0.751273	-3.24762
   361	-1	 8.48346	 4.38329	0.572348
   362	-1	-2.42387	 14.6919	-0.931199
   363	-1	-12.4312	  2.9805	-1.82353
   364	-1	  2.2726	-6.96885	-2.00566
   365	-1	 5.83387	-7.91458	-0.0450961
   366	-1	-10.1608	 6.49515	-1.85378
   367	-1	-16.5104	 2.55987	-1.04927
   368	-1	 11.6334	-15.0024	-1.92049
   369	-1	-4.75218	-5.70939	0.291305
   370	-1	 5.86076	 19.2566	 1.19654
   371	-1	 5.43238	  4.2939	 1.49286
   372	-1	 2.36297	 2.45506	-0.766866
   373	-1	-0.161617	-7.10681	-2.29018
   374	-1	-5.15298	-9.43627	0.694928
   375	-1	 7.44905	 13.8082	 1.24625
   376	-1	-11.3218	  4.9754	-3.10907
   377	-1	 18.2889	 9.55311	-0.317537
   378	-1	 14.7193	-12.3022	-0.941146
   379	-1	-16.3167	 17.6561	 1.47508
   380	-1	 17.8192	  2.9923	-0.406594
   381	-1	 6.45161	-14.8744	 -2.9868
   382	-1	-10.8711	-18.5954	 1.27271
   383	-1	-17.3928	-5.37344	-1.13419
   384	-1	 19.1751	 -8.6693	-0.923543
   385	-1	 10.0218	 7.18957	-2.15518
   386	-1	-20.2551	  4.5589	-1.08904
   387	-1	-11.9446	 8.14278	-0.55409
   388	-1	-3.97725	-10.2175	-2.39332
   389	-1	-2.88648	-3.86464	0.306104
   390	-1	-8.44458	 15.5437	0.803994
   391	-1	  -10.87	-10.7122	0.733097
   392	-1	 1.68401	 4.13783	 -2.7125
   393	-1	-5.29605	 15.0273	-1.64228
   394	-1	-15.7579	-15.4757	-2.50137
   395	-1	-14.7026	-4.77145	-2.16256
   396	-1	 15.7603	 7.51701	0.467074
   397	-1	 10.0392	 6.68405	0.582321
   398	-1	 6.56663	 16.5367	-2.76444
   399	-1	-19.4388	-9.45209	-1.01424
   400	-1	 2.39522	 8.06551	-0.382506
   401	-1	 6.30793	 -4.6419	-1.53688
   402	-1	-1.63686	 6.77179	-2.65283
   403	-1	  5.1045	 13.6825	 -3.1681
   404	-1	 18.9182	-19.6742	0.450275
   405	-1	-1.58103	-16.2419	 1.67216
   406	-1	-3.94387	 17.1591	-3.15267
   407	-1	 17.8606	-17.4171	  0.6546
   408	-1	  16.349	  14.037	 1.00444
   409	-1	 2.25495	 11.6111	  1.0491
   410	-1	-0.847719	 5.57513	0.792887
   411	-1	-11.9601	-18.9957	-1.96573
   412	-1	-0.00187047	 17.1003	-2.18397
   413	-1	 4.10435	 17.7104	-1.84779
   414	-1	  8.5131	 15.4725	-0.103438
   415	-1	-7.20369	  4.4397	 1.84101
   416	-1	-7.83184	-14.5817	-0.251974
   417	-1	-14.9109	-0.451796	-2.39528
   418	-1	-8.80729	 17.8687	-3.01824
   419	-1	 12.9154	-1.92014	-3.04833
   420	-1	 1.71349	 1.15908	-2.96649
   421	-1	 7.80312	-19.6677	-2.22768
   422	-1	0.0776321	 6.21108	-1.45668
   423	-1	-13.5495	-20.0726	 -2.4711
ITEM: TIMESTEP
1999
ITEM: NUMBER OF ATOMS
424
ITEM: BOX BOUNDS
-21.4562	21.4562
-21.4562	21.4562
-4.20168	4.20168
ITEM: ATOMS index type x y z
     0	1	 20.0306	-10.8643	0.0771837
     1	1	 8.41291	 11.4311	  1.8343
     2	1	-8.37809	  12.817	-0.755183
     3	1	-14.9195	-1.29183	0.334917
     4	1	-10.7483	-11.1242	-2.63959
     5	1	 3.05631	 15.8973	0.176857
     6	1	-0.443806	 1.75637	 -2.6974
     7	1	-9.43164	-16.4807	-2.95436
     8	1	 5.98876	 9.68277	0.245069
     9	1	-15.6257	-15.5198	0.112663
    10	1	-11.8408	-8.46627	-2.93625
    11	1	 -14.584	 2.43769	-2.38206
    12	1	-7.34143	 15.5492	-1.22379
    13	1	-1.29546	-13.5402	-0.784299
    14	1	 10.1808	-13.8565	-0.98188
    15	1	-18.8425	-7.32366	-0.695429
    16	1	-4.33502	-14.1037	-0.315336
    17	1	-1.68227	-17.2668	-0.42677
    18	1	-16.1449	-2.57374	 1.55137
    19	1	-4.43529	 11.0744	 2.55602
    20	1	-4.16663	 5.23257	-0.469799
    21	1	-17.4773	 3.61675	0.468342
    22	1	0.197562	 10.8022	-2.38198
    23	1	-19.6175	-6.81835	 -3.1074
    24	1	-11.5359	-5.60529	0.729284
    25	1	 4.64576	 5.68101	-0.65504
    26	1	 2.86896	  9.8299	 2.83646
    27	1	 8.04603	-16.4703	-3.05388
    28	1	-20.1784	 12.1777	-2.10119
    29	1	-8.33965	-13.6185	-3.10421
    30	1	 4.76504	  7.6064	-2.23698
    31	1	 17.4188	-13.0284	0.333486
    32	1	-9.76464	 5.47616	 2.34008
    33	1	 -9.1688	-12.1361	0.353566
    34	1	 7.86873	-17.6158	-0.88647
    35	1	  12.127	-8.98506	0.614655
    36	1	 15.6093	 5.52922	  -2.471
    37	1	-3.29205	-7.38222	-1.99021
    38	1	 14.2392	-18.9509	-3.18403
    39	1	-7.72671	-7.22859	-0.966534
    40	1	 1.22704	-3.30944	-2.64707
    41	1	-5.67367	-1.87583	-3.03713
    42	1	 12.2924	 -13.143	-0.200552
    43	1	-13.7915	 18.5049	   0.592
    44	1	-15.0268	-10.4057	-1.31999
    45	1	-5.64038	 9.16522	-1.74478
    46	1	 10.5482	0.710509	-2.73489
    47	1	 11.6962	 15.8536	 1.02848
    48	1	 7.17252	 2.45314	 2.27017
    49	1	 7.77204	-2.98948	 1.26917
    50	1	-11.4266	-20.3292	-0.0410998
    51	1	 9.37698	-1.64831	-0.159488
    52	1	 3.03046	-15.7359	-1.01184
    53	1	 5.18311	-16.1501	 2.96068
    54	1	-14.3607	 6.51931	-2.80936
    55	1	-5.43852	 4.24588	 1.65407
    56	1	 2.79162	-19.4802	-2.27555
    57	1	 4.02673	-0.34859	-1.91686
    58	1	 5.37743	-20.7218	-2.47145
    59	1	-17.8804	 11.7061	-1.77056
    60	1	-5.75643	-15.2593	-1.65269
    61	1	-14.4071	-4.12015	-0.0401663
    62	1	 12.1726	-18.4334	-3.10781
    63	1	 2.90811	 13.8548	-0.755958
    64	1	 17.9299	 14.4336	-2.08992
    65	1	 -19.795	 7.29815	-1.94509
    66	1	0.295005	-19.9156	0.834094
    67	1	 12.7112	 12.4846	0.129482
    68	1	 1.67382	  8.8332	-0.780745
    69	1	-5.88585	  4.9329	-3.06169
    70	1	-1.67003	-2.43866	-0.489345
    71	1	 18.8507	-9.63458	-2.77096
    72	1	-2.46265	 7.14369	0.0822424
    73	1	-16.1582	 15.3207	-1.10123
    74	1	 13.1844	 2.01613	-3.04427
    75	1	-18.9768	 16.3799	-2.65414
    76	1	 17.7957	 -1.0753	 1.29339
    77	1	 11.1915	 5.83245	 -2.1891
    78	1	 6.44061	  4.5699	-1.62973
    79	1	 16.3764	 10.7391	-2.84909
    80	1	  14.921	 11.5789	 1.87497
    81	1	-7.74434	 4.17903	-2.24938
    82	1	 4.90653	-1.71649	 1.70242
    83	1	-7.47919	-9.87275	-1.51923
    84	1	 10.0425	-18.9534	0.374306
    85	1	-5.62863	 12.7986	-0.907562
    86	1	 1.99857	-0.182875	 2.59956
    87	1	  13.127	0.319679	 1.09772
    88	1	 14.6337	-2.35444	-1.52062
    89	1	-18.7305	-2.69859	-1.68433
    90	1	-6.09369	 1.10443	-0.87045
    91	1	-6.55705	-7.61031	-2.73696
    92	1	-16.2145	-12.7811	-1.51078
    93	1	-15.6749	-6.77013	-0.0139505
    94	1	 6.95284	 7.33833	-1.29821
    95	1	  9.9271	 11.3125	-0.999076
    96	1	 6.05482	 17.8314	0.0696967
    97	1	  1.4735	 0.62351	-0.321361
    98	1	 5.59619	-20.3006	 2.03461
    99	1	  16.004	-18.9672	0.322346
   100	1	-11.6708	-1.18755	-3.03054
   101	1	-16.5993	-3.76078	-3.14938
   102	1	 14.8407	 19.2265	-1.91253
   103	1	 5.47359	-2.18728	-2.85532
   104	1	 11.0647	-5.70166	0.992352
   105	1	 9.89171	 3.41983	-1.75091
   106	1	-9.76162	-0.403372	0.00861972
   107	1	-11.8369	-13.9031	-2.43709
   108	1	-15.0994	 8.88019	-3.16464
   109	1	-20.1541	 2.25866	-2.16858
   110	1	-15.7319	-8.73627	0.769693
   111	1	-13.7423	-6.25198	 2.13001
   112	1	 13.5338	-13.2956	-2.59727
   113	1	-4.66655	 15.3261	0.369543
   114	1	-12.1766	-0.325143	-0.604175
   115	1	-16.7008	 18.2219	-2.74989
   116	1	-6.80379	-17.9374	 1.03296
   117	1	 7.95312	-6.36784	0.254142
   118	1	-0.97899	0.523927	-0.915573
   119	1	-9.94996	 3.18082	-2.23641
   120	1	  7.0895	-0.150122	-0.85107
   121	1	 17.4997	-15.2257	-0.852303
   122	1	-9.56321	 12.6237	 1.10535
   123	1	-0.697353	 4.26378	-2.04074
   124	1	  13.034	-10.9858	-0.496194
   125	1	0.229435	 3.31466	0.141169
   126	1	-0.117417	-1.47389	0.732104
   127	1	  8.9689	-4.98786	 1.74507
   128	1	-11.4703	 5.78881	-0.531219
   129	1	-17.8599	0.941072	 1.15152
   130	1	-11.2312	 12.7349	-2.62016
   131	1	 16.3796	-10.6458	-0.548551
   132	1	 20.3159	   15.57	0.564843
   133	1	 11.1305	-19.3549	-1.55803
   134	1	-1.74573	  16.706	0.664259
   135	1	 11.1774	-9.97934	-2.19266
   136	1	0.797537	 8.30038	 1.13572
   137	1	-1.58215	-3.11426	 -2.3938
   138	1	 1.90968	-11.0368	 2.68736
   139	1	-13.5909	 12.2158	-1.64717
   140	1	 6.20049	-10.9449	-0.54166
   141	1	-0.580344	-7.11521	 1.72115
   142	1	-18.0729	 2.33729	-2.93618
   143	1	 1.06345	-5.55969	0.242062
   144	1	 4.75636	-12.4311	-1.46809
   145	1	-21.0775	-5.25869	0.198531
   146	1	 8.39233	-5.81817	-2.61744
   147	1	 14.9504	-15.3377	-2.64646
   148	1	-20.8698	 -15.589	 1.65489
   149	1	 13.3748	 8.41962	-1.49674
   150	1	-11.9958	-8.84545	-0.632091
   151	1	-1.83008	-9.72863	0.113961
   152	1	-8.44236	 10.2953	-3.24443
   153	1	-9.88924	 -8.0151	 1.11071
   154	1	 16.7864	-2.85307	-1.83685
   155	1	-2.36471	 13.3579	-2.22864
   156	1	-15.1129	 9.43485	0.0370357
   157	1	-1.81255	-19.4889	-0.169243
   158	1	-8.82973	 6.43619	0.542502
   159	1	  20.563	 12.5571	-1.77949
   160	1	-8.81842	-3.35682	-0.973298
   161	1	-12.1274	 1.74224	 2.22733
   162	1	 -20.869	 -12.769	0.421416
   163	1	 16.6236	-6.55579	 -1.2401
   164	1	  11.357	-0.859274	-1.00861
   165	1	 3.45591	-6.34678	0.0161204
   166	1	-14.8948	 1.89669	 1.36196
   167	1	 16.2487	 16.8617	-1.70913
   168	1	-17.1779	 14.5065	0.698932
   169	1	-19.7551	 6.29001	0.795898
   170	1	-18.7796	 5.10559	-2.80352
   171	1	-3.22345	-15.0245	-2.31729
   172	1	 3.86445	 10.3417	0.394464
   173	1	-11.9191	-17.0972	-0.351551
   174	1	-11.9795	 8.52334	 2.09476
   175	1	-2.20672	-11.8185	-3.11907
   176	1	 0.85305	-16.0973	-2.42665
   177	1	 10.1227	 8.92361	0.922133
   178	1	 8.44665	 13.4619	-2.52395
   179	1	-14.3951	-17.4415	-0.69664
   180	1	 16.2703	 4.71004	0.478935
   181	1	-4.34399	-1.78971	0.365377
   182	1	 16.6538	 8.34247	-1.41441
   183	1	 6.68831	-16.7523	 1.28529
   184	1	 3.06786	 6.34193	-2.87574
   185	1	 18.3892	 16.7038	-2.90333
   186	1	 13.8269	-6.80069	-2.64966
   187	1	-4.01782	 2.01362	-1.78135
   188	1	-19.4773	 19.4861	  1.2043
   189	1	-8.01126	 13.7912	-3.07706
   190	1	 14.1734	 17.0196	0.320367
   191	1	 5.32021	-7.02898	-1.67386
   192	1	 1.68243	 5.41408	-0.0715311
   193	1	-17.8919	-14.8573	-2.85559
   194	1	-15.8712	 7.47935	-0.980469
   195	1	-13.4775	 14.4717	 1.17139
   196	1	-9.45382	 16.8319	-0.263741
   197	1	  7.6836	-12.4544	-2.73704
   198	1	-19.3594	-19.9667	-0.187032
   199	1	 6.98009	 18.9917	-2.05239
   200	1	-0.713156	 12.4269	0.101326
   201	1	 4.11436	-4.86477	 1.47966
   202	1	  10.162	 13.1189	-0.138054
   203	1	-1.99345	 2.36664	-0.500436
   204	1	-13.6738	 10.9724	0.421996
   205	1	 17.5618	 12.4451	 1.48364
   206	1	-7.16731	-3.61084	-2.35411
   207	1	-21.2263	 14.9007	-2.65356
   208	1	 3.15506	 14.0936	 1.51553
   209	1	-11.0994	 9.03763	-2.65135
   210	1	 14.8129	-15.6846	0.486161
   211	1	-10.9684	-14.5736	0.694292
   212	-1	 -6.9353	-19.1224	-0.724274
   213	-1	 15.2891	-4.87403	0.869871
   214	-1	 18.0559	-16.7538	-2.41351
   215	-1	 -15.283	 10.8801	-1.37084
   216	-1	 6.61794	-4.91416	  2.3398
   217	-1	-0.346025	-13.4644	 1.36209
   218	-1	-17.2236	-9.30067	-1.58401
   219	-1	 9.03314	 0.48065	 1.67062
   220	-1	 12.0903	 10.5287	-1.20031
   221	-1	 12.7476	 -7.1417	  1.7075
   222	-1	 12.7351	-3.67484	-0.733193
   223	-1	 19.6481	  -2.661	-2.64508
   224	-1	  11.599	 7.59002	-3.19914
   225	-1	-15.7403	-12.4788	 1.22811
   226	-1	 1.38079	-10.8576	-0.303392
   227	-1	 -19.219	-14.4389	 0.37128
   228	-1	-4.95407	 12.1055	-3.13935
   229	-1	0.724383	-11.8874	-2.11223
   230	-1	-19.8143	-14.2896	-2.26468
   231	-1	-10.6219	 14.8031	0.445292
   232	-1	-7.34822	-5.50593	0.388676
   233	-1	-2.72461	 9.52059	 1.19279
   234	-1	0.517541	-14.0501	-2.55874
   235	-1	 17.0143	 1.88677	-2.95027
   236	-1	  18.116	-0.0899011	-2.33934
   237	-1	-11.3516	-17.1323	 -3.2237
   238	-1	  4.5376	 15.3124	-2.89181
   239	-1	 14.1021	-3.72427	-3.11997
   240	-1	-8.12704	 2.24033	 1.33309
   241	-1	 5.98477	 10.6974	-2.47068
   242	-1	-7.13293	 19.8326	-0.820507
   243	-1	-12.8523	-1.75359	0.565116
   244	-1	 16.3767	-10.9466	 1.85121
   245	-1	-2.22235	 10.1506	 -2.7323
   246	-1	 17.5178	 6.78139	-2.88944
   247	-1	-0.356948	 -4.5816	-1.10867
   248	-1	-7.80873	 4.13712	0.366442
   249	-1	-13.0094	 9.12586	-3.17778
   250	-1	-4.52298	-8.29047	-0.378285
   251	-1	-12.1566	 10.2487	-0.668225
   252	-1	 10.1158	 -17.506	-2.81138
   253	-1	-5.30471	-3.85119	-0.285921
   254	-1	-17.4289	-11.6383	-2.74926
   255	-1	 11.9236	-18.0572	-0.106247
   256	-1	-6.88073	  12.236	-2.28241
   257	-1	 5.36869	 3.12751	-2.91899
   258	-1	  -7.393	-0.514615	0.584767
   259	-1	 12.6637	 6.98122	0.971705
   260	-1	-14.8146	-8.11627	-1.58713
   261	-1	-12.3155	-6.79463	-1.07666
   262	-1	-4.13606	 7.24626	-2.81532
   263	-1	-5.51457	 18.8184	 2.29946
   264	-1	-13.3572	 14.6749	-2.69086
   265	-1	 2.99137	-14.0194	0.387191
   266	-1	 4.96949	-10.2349	-2.80614
   267	-1	-4.64475	-4.30703	-2.90019
   268	-1	-18.5989	 19.3281	-1.70819
   269	-1	-18.9281	-11.7205	 1.29941
   270	-1	 16.0618	 17.8682	0.323505
   271	-1	-19.5256	-11.9064	-1.00416
   272	-1	 15.9361	0.940383	0.234545
   273	-1	0.404139	 -1.4784	-1.46965
   274	-1	-20.3699	-2.13053	 2.34958
   275	-1	-5.61461	 9.09935	0.581229
   276	-1	 5.01928	-13.5464	  1.0467
   277	-1	 15.3129	-7.22016	0.617865
   278	-1	 7.21523	 1.08693	-2.47809
   279	-1	-16.9878	-4.66682	 1.37202
   280	-1	-3.80212	-12.3431	0.677298
   281	-1	 -14.175	 -19.603	-0.121443
   282	-1	-7.71978	-9.75626	0.844444
   283	-1	 5.15717	 3.29965	-0.264132
   284	-1	-13.9447	 16.2769	0.243224
   285	-1	 11.0413	-5.35687	-2.56976
   286	-1	 7.92227	 12.2861	-0.921712
   287	-1	-13.1042	-13.5428	-0.907647
   288	-1	0.352228	-17.4512	-0.842651
   289	-1	-3.14457	 1.28238	0.616083
   290	-1	-9.05486	-20.5061	0.825627
   291	-1	 11.7155	 4.80142	-0.195218
   292	-1	 9.43978	-7.70251	-1.52246
   293	-1	  15.054	  9.7005	-0.881893
   294	-1	  13.791	 12.1497	-1.65927
   295	-1	-6.47529	 14.2011	 0.18597
   296	-1	 17.6402	-20.3398	-1.59553
   297	-1	-15.8687	 11.5081	 1.66439
   298	-1	-7.46498	-16.4834	-0.784412
   299	-1	-4.77474	-19.5851	-2.83952
   300	-1	  -2.218	 11.4096	 1.41923
   301	-1	-0.825335	-18.7538	-2.63772
   302	-1	0.537855	 16.9751	0.645272
   303	-1	 19.1913	-7.57411	-2.95451
   304	-1	 7.12606	-13.9525	-0.637661
   305	-1	-10.2784	-6.56283	-2.79582
   306	-1	-0.256219	-9.12057	-2.61641
   307	-1	 3.32578	 10.4488	-2.60435
   308	-1	-7.11846	-11.6818	0.286461
   309	-1	 18.2717	 12.0405	-2.88245
   310	-1	-11.4445	 17.6289	 1.66958
   311	-1	-2.37099	  -1.033	-2.42633
   312	-1	-21.2227	 10.5662	-0.921791
   313	-1	 13.5931	 4.79763	 -2.5145
   314	-1	 -16.867	-20.4784	-0.910706
   315	-1	-9.52224	-8.55538	-2.35083
   316	-1	-9.54982	-20.1271	-2.56868
   317	-1	 18.8285	 6.41605	 1.66748
   318	-1	-6.05821	-4.62433	 3.27469
   319	-1	 9.37239	-4.29789	-0.656274
   320	-1	 13.7971	-20.3251	0.113749
   321	-1	 -2.6353	 19.8584	 -1.3808
   322	-1	 9.86181	  -12.87	 1.36308
   323	-1	-9.13766	-4.31984	0.983265
   324	-1	 4.25476	-2.72272	-1.15323
   325	-1	 3.30571	-9.13881	-0.678364
   326	-1	 1.08798	 14.7704	-0.488208
   327	-1	-16.0355	 4.34475	 1.96366
   328	-1	 9.43281	-15.9817	-0.312822
   329	-1	  12.386	 17.2467	-1.31127
   330	-1	-10.0605	 3.40879	0.0923116
   331	-1	 18.5242	 -6.2264	  1.7062
   332	-1	-7.98514	 1.77568	-2.57686
   333	-1	 12.9508	 14.4224	-2.55126
   334	-1	 2.61056	 8.33257	-2.49728
   335	-1	  4.1388	-16.6042	-2.87339
   336	-1	 -7.5919	 8.03961	-2.47502
   337	-1	 -17.953	-18.8359	-2.30971
   338	-1	-15.1215	-2.45952	 -1.7495
   339	-1	 7.16147	 -7.7731	-2.47821
   340	-1	-3.70262	 3.92216	-2.72614
   341	-1	 7.67779	-2.61873	-2.62032
   342	-1	-3.81084	-16.9831	-0.603714
   343	-1	-12.5601	-3.67661	-2.85269
   344	-1	 1.62455	 12.5532	 -2.5637
   345	-1	-13.4643	-16.7945	-2.72897
   346	-1	 15.8755	-9.03014	-1.89605
   347	-1	 9.25236	-10.7832	-1.58955
   348	-1	-0.917041	-11.6451	-0.190307
   349	-1	-16.5825	 4.10985	-2.19432
   350	-1	-12.7994	-10.5812	-1.62241
   351	-1	-14.8786	 16.4069	-2.50022
   352	-1	 11.6978	-15.2152	0.866401
   353	-1	 8.18598	 8.26603	0.688471
   354	-1	-1.27566	-3.85499	 3.16975
   355	-1	 1.47838	-14.9072	  1.4764
   356	-1	 11.4536	-3.29392	 1.48238
   357	-1	 14.3156	 3.79433	   1.592
   358	-1	  10.559	-20.7566	-3.01193
   359	-1	-9.64313	-16.5784	0.0304212
   360	-1	-6.27484	-0.0518129	-2.73358
   361	-1	 7.80236	 3.97009	0.541942
   362	-1	 -2.1118	 13.8291	0.0593821
   363	-1	-12.5245	 3.65671	-1.63394
   364	-1	 2.73989	-6.44675	-1.92323
   365	-1	 5.39648	-7.64792	0.619895
   366	-1	-9.42927	  6.8142	-1.48795
   367	-1	-16.4923	 1.70711	-0.701069
   368	-1	 11.9174	-14.8992	-1.37021
   369	-1	-3.99177	-5.65502	0.751347
   370	-1	 6.65523	 20.2359	 2.02015
   371	-1	 4.87864	 3.73493	 2.49234
   372	-1	 2.54128	 2.69058	-0.273212
   373	-1	0.0276661	-6.61499	-1.52583
   374	-1	-5.16729	-9.56519	 1.31152
   375	-1	 7.94893	 13.4025	 1.81214
   376	-1	-11.5283	 6.08355	-2.83878
   377	-1	 19.2849	 10.1877	-0.261578
   378	-1	 15.1843	-12.4149	-0.814675
   379	-1	-17.0988	 17.7868	 2.42814
   380	-1	 17.5286	  2.6491	-0.451433
   381	-1	 6.58639	-14.7336	-2.78187
   382	-1	-10.5885	-18.9649	  1.5603
   383	-1	-17.5358	-5.01774	-0.678439