ITEM: TIMESTEP
1000
ITEM: NUMBER OF ATOMS
452
ITEM: BOX BOUNDS pp pp ff
-1.0728100000000000e+01 1.0728100000000000e+01
-1.0728100000000000e+01 1.0728100000000000e+01
-2.1009400000000000e+00 2.1009400000000000e+00
ITEM: ATOMS id type q x y z 
10 1 8.86201 -7.86601 -8.29881 0.0912482 
149 1 8.86201 -9.33575 -6.96353 0.821951 
174 1 8.86201 -7.0003 -8.63391 -0.48712 
180 1 8.86201 -6.88576 -9.75035 0.961562 
194 1 8.86201 -9.66109 -6.912 -1.2832 
199 1 8.86201 -8.17253 -10.2534 1.13447 
226 1 8.86201 -7.49819 -6.5469 0.699401 
228 1 8.86201 -10.6182 -6.76067 -0.0579397 
282 2 -8.86201 -6.676 -10.6564 1.41341 
315 2 -8.86201 -7.2697 -9.71073 -0.955767 
338 2 -8.86201 -10.3059 -10.3643 -0.433434 
346 2 -8.86201 -6.84058 -7.41422 -0.0323463 
395 2 -8.86201 -8.95948 -8.18698 -0.749673 
424 2 -8.86201 -6.77143 -8.90909 -1.41627 
436 2 -8.86201 -10.1091 -9.17796 -1.34151 
288 2 -8.86201 -5.75054 -7.12094 -1.42746 
8 1 8.86201 -4.13556 -8.85991 0.195125 
17 1 8.86201 -3.21727 -6.7441 0.5251 
51 1 8.86201 -6.31663 -10.66 -0.396945 
61 1 8.86201 -3.48499 -8.70628 -0.993488 
108 1 8.86201 -4.19105 -7.73797 -0.886578 
117 1 8.86201 -2.79858 -9.49449 0.79925 
212 1 8.86201 -4.75453 -8.43235 1.17024 
213 1 8.86201 -2.91236 -9.98755 -1.1348 
238 1 8.86201 -4.63982 -9.10071 -0.893365 
291 2 -8.86201 -4.98894 -9.84265 1.26229 
299 2 -8.86201 -3.05109 -8.33227 -0.0348192 
317 2 -8.86201 -3.99909 -10.2381 -1.4691 
360 2 -8.86201 -5.3986 -8.74738 0.181224 
383 2 -8.86201 -5.8415 -8.63604 1.05844 
412 2 -8.86201 -5.74781 -9.21963 -0.730547 
417 2 -8.86201 -3.66762 -7.8753 1.52274 
14 1 8.86201 -2.50838 -8.01855 0.956135 
281 2 -8.86201 -2.17567 -7.3479 0.0329468 
300 2 -8.86201 -1.53042 -9.9069 -1.3014 
18 1 8.86201 -1.13293 -7.64171 -0.312934 
53 1 8.86201 0.920125 -8.75666 -1.37021 
67 1 8.86201 0.963196 -10.1099 1.43046 
158 1 8.86201 -1.65556 -10.0643 0.678361 
172 1 8.86201 -0.986662 -7.23631 -1.55477 
177 1 8.86201 -0.226647 -9.50881 -0.381647 
235 1 8.86201 1.26116 -7.63615 0.258051 
266 2 -8.86201 2.02005 -6.45741 0.371728 
289 2 -8.86201 1.35583 -9.48702 0.457091 
302 2 -8.86201 -0.4876 -10.5067 -0.72608 
336 2 -8.86201 2.05545 -8.28731 -0.356374 
343 2 -8.86201 -2.0618 -8.10651 -0.769966 
356 2 -8.86201 -0.609508 -8.24759 0.540226 
406 2 -8.86201 -1.29246 -8.21161 1.52211 
433 2 -8.86201 -0.833657 -8.45561 -1.25109 
438 2 -8.86201 0.370607 -7.40304 -1.1428 
54 1 8.86201 1.94027 -8.17761 0.883846 
99 1 8.86201 1.04096 -9.74235 -0.964076 
277 2 -8.86201 1.25205 -6.95447 1.09349 
382 2 -8.86201 1.30751 -7.52248 -0.855506 
230 1 8.86201 1.07662 -6.63289 -1.35312 
322 2 -8.86201 -0.0797454 -10.6456 1.43383 
414 2 -8.86201 0.860205 -10.6924 -0.402214 
59 1 8.86201 2.7987 -10.4349 -1.54969 
15 1 8.86201 4.84023 -6.45069 0.562502 
28 1 8.86201 2.35203 -8.3453 -1.38324 
35 1 8.86201 3.2536 -8.8218 0.160845 
43 1 8.86201 5.68151 -7.69153 -0.119166 
63 1 8.86201 5.99606 -9.734 -1.19819 
85 1 8.86201 4.8792 -8.37952 0.464487 
134 1 8.86201 5.68506 -9.9572 0.836173 
184 1 8.86201 3.98845 -8.00022 1.15255 
253 2 -8.86201 3.48931 -9.17443 -1.07345 
305 2 -8.86201 3.50932 -7.18541 0.358091 
329 2 -8.86201 4.62716 -7.3707 -0.511638 
353 2 -8.86201 5.62184 -8.04308 1.47963 
359 2 -8.86201 4.93915 -10.1175 -0.507338 
369 2 -8.86201 5.21772 -6.62475 -1.55444 
428 2 -8.86201 5.23665 -8.13221 -1.08502 
198 1 8.86201 3.94638 -7.47282 -1.50267 
426 2 -8.86201 5.15863 -6.48218 1.46732 
231 1 8.86201 9.52455 -7.06047 -0.862052 
256 2 -8.86201 6.6032 -8.96994 1.21802 
39 1 8.86201 6.51026 -10.4383 -0.323121 
100 1 8.86201 9.04302 -8.81662 0.121432 
122 1 8.86201 7.35365 -8.20843 0.523186 
148 1 8.86201 7.11025 -7.43574 -0.831493 
211 1 8.86201 6.79065 -7.24716 0.879269 
215 1 8.86201 8.58333 -8.73039 -1.19881 
297 2 -8.86201 8.88987 -9.67181 -1.49786 
321 2 -8.86201 7.93668 -9.70357 -0.0708092 
405 2 -8.86201 8.97195 -9.89894 1.23777 
408 2 -8.86201 10.6394 -8.44605 -0.910666 
439 2 -8.86201 6.63189 -8.53017 -0.554399 
379 2 -8.86201 7.22569 -6.51026 0.227293 
451 2 -8.86201 8.59319 -6.45999 -1.09211 
24 1 8.86201 -7.5895 -4.20856 -1.47939 
45 1 8.86201 -7.47588 -5.7354 1.63506 
93 1 8.86201 -7.71503 -5.39964 -1.1204 
94 1 8.86201 -7.62201 -2.82292 0.962839 
102 1 8.86201 -8.5451 -2.30929 -1.05471 
111 1 8.86201 -9.58852 -3.53419 1.42738 
146 1 8.86201 -9.56053 -2.72077 -0.389532 
151 1 8.86201 -6.92175 -4.43841 -0.196721 
219 1 8.86201 -9.15972 -5.77899 -0.336123 
255 2 -8.86201 -8.96754 -5.83489 -1.38726 
261 2 -8.86201 -8.65049 -3.9988 1.10277 
262 2 -8.86201 -7.41627 -3.35875 -0.0256484 
270 2 -8.86201 -9.10449 -6.02997 1.58176 
272 2 -8.86201 -10.2743 -5.63374 -1.27566 
351 2 -8.86201 -6.88347 -5.9911 -0.400192 
384 2 -8.86201 -8.55203 -2.84397 0.340631 
400 2 -8.86201 -9.69867 -4.02118 -0.615906 
392 2 -8.86201 -6.48934 -5.49966 1.263 
30 1 8.86201 -2.82086 -6.42297 -1.46923 
112 1 8.86201 -6.43451 -2.4199 1.40358 
5 1 8.86201 -5.24054 -5.55766 -1.51224 
11 1 8.86201 -4.55342 -3.78515 -0.709626 
25 1 8.86201 -5.52532 -2.97045 -0.702688 
34 1 8.86201 -5.00261 -5.92006 1.34407 
40 1 8.86201 -3.16319 -2.38862 -1.4935 
84 1 8.86201 -2.25746 -5.54081 -0.478622 
92 1 8.86201 -3.56754 -5.49249 -0.227983 
154 1 8.86201 -5.71619 -4.7819 1.15089 
283 2 -8.86201 -3.55707 -5.31144 1.10474 
306 2 -8.86201 -6.40424 -3.77447 -0.886085 
309 2 -8.86201 -2.77584 -5.59888 0.37573 
316 2 -8.86201 -5.76756 -5.3698 -0.382831 
324 2 -8.86201 -4.90323 -2.69486 0.127725 
375 2 -8.86201 -3.25334 -3.3472 -0.0719898 
431 2 -8.86201 -4.69096 -5.28298 -0.0810803 
38 1 8.86201 -2.68218 -4.76276 -1.08469 
62 1 8.86201 -6.27223 -2.6657 -0.0889888 
254 2 -8.86201 -2.97386 -2.39688 0.369991 
268 2 -8.86201 -2.45046 -2.54351 -0.744626 
218 1 8.86201 0.508505 -6.22484 0.999434 
370 2 -8.86201 -1.64278 -3.51525 0.485952 
139 1 8.86201 1.76254 -5.27231 0.981731 
142 1 8.86201 -0.927562 -3.31738 1.57553 
144 1 8.86201 -0.179864 -3.7883 -0.656661 
152 1 8.86201 -0.448446 -5.43282 0.555586 
176 1 8.86201 -0.441056 -4.89045 -1.4009 
227 1 8.86201 1.80523 -4.78226 0.0884205 
251 2 -8.86201 -1.38391 -5.05026 -0.262208 
267 2 -8.86201 1.65503 -4.6789 -0.911491 
307 2 -8.86201 0.701302 -4.34718 -1.5034 
349 2 -8.86201 0.833 -5.28098 -0.570196 
355 2 -8.86201 0.062397 -2.94122 0.508354 
365 2 -8.86201 1.55642 -2.41445 -1.29783 
374 2 -8.86201 -1.43773 -3.24692 -1.57652 
389 2 -8.86201 -1.63588 -6.40521 -1.48146 
450 2 -8.86201 1.00421 -3.40876 1.26532 
319 2 -8.86201 -1.34419 -2.35183 1.39407 
41 1 8.86201 0.123364 -3.18245 -1.57988 
138 1 8.86201 -0.830283 -2.19665 -1.45431 
325 2 -8.86201 0.723571 -2.19819 -0.242989 
390 2 -8.86201 -1.04006 -2.73167 -0.589985 
323 2 -8.86201 6.14633 -6.07217 0.592707 
166 1 8.86201 2.15206 -3.36372 1.2262 
326 2 -8.86201 2.65473 -3.92642 -0.0258947 
105 1 8.86201 5.21256 -2.80955 1.15024 
118 1 8.86201 4.23109 -4.19473 -0.685686 
125 1 8.86201 5.50816 -3.96248 0.271741 
128 1 8.86201 4.15658 -3.85664 1.55763 
136 1 8.86201 5.74031 -4.54529 -1.41286 
141 1 8.86201 3.84313 -4.8542 0.485297 
145 1 8.86201 3.08524 -5.96775 -0.231112 
147 1 8.86201 4.35759 -2.65926 -1.50495 
192 1 8.86201 2.81898 -4.4539 -1.44302 
293 2 -8.86201 5.24203 -5.13608 -0.236305 
340 2 -8.86201 4.634 -4.82692 -1.46956 
348 2 -8.86201 4.57114 -6.15603 -0.917085 
366 2 -8.86201 3.63641 -3.52027 0.15396 
440 2 -8.86201 5.69429 -3.87877 1.4035 
113 1 8.86201 6.42762 -6.30254 -1.05617 
202 1 8.86201 2.24786 -2.93172 -0.463798 
32 1 8.86201 8.21739 -6.27258 1.2048 
16 1 8.86201 10.6828 -4.78351 -0.490314 
163 1 8.86201 9.59967 -5.47994 1.32629 
446 2 -8.86201 10.5282 -5.43957 0.354519 
222 1 8.86201 7.82736 -2.255 -0.0405035 
286 2 -8.86201 6.61457 -2.7979 -1.19301 
1 1 8.86201 10.1156 -3.96985 -0.349417 
36 1 8.86201 6.83807 -5.2864 0.670545 
72 1 8.86201 10.0598 -6.03903 -1.38086 
132 1 8.86201 8.79934 -4.36361 -0.965281 
164 1 8.86201 8.99259 -3.57552 0.137569 
187 1 8.86201 7.33127 -4.42983 0.181236 
245 2 -8.86201 7.76643 -5.23461 1.06907 
278 2 -8.86201 7.92124 -3.28483 0.897521 
304 2 -8.86201 8.68909 -3.25192 -0.834101 
332 2 -8.86201 8.87686 -4.86553 1.60412 
347 2 -8.86201 8.42281 -4.54026 0.301111 
385 2 -8.86201 10.3839 -4.50626 -1.47839 
155 1 8.86201 10.1791 -2.24329 -0.0318688 
240 1 8.86201 8.18618 -2.3828 -1.31062 
434 2 -8.86201 -6.55609 -1.72522 -1.40504 
12 1 8.86201 -6.70356 0.173662 -0.0416731 
19 1 8.86201 -8.24226 -0.782697 0.113823 
90 1 8.86201 -9.94283 -1.07665 -1.38706 
110 1 8.86201 -9.16764 0.652507 0.00983598 
130 1 8.86201 -8.35974 -0.629216 1.1909 
143 1 8.86201 -8.02633 1.35688 -1.03712 
167 1 8.86201 -7.56399 0.38114 1.59621 
275 2 -8.86201 -10.0317 0.249641 1.21825 
280 2 -8.86201 -9.80058 -0.924972 -0.316994 
339 2 -8.86201 -8.83908 -1.32837 -1.52474 
364 2 -8.86201 -7.88025 1.55102 0.367346 
368 2 -8.86201 -7.83549 0.194946 -0.030487 
418 2 -8.86201 -7.13014 -0.786893 -1.17245 
435 2 -8.86201 -10.4876 0.473297 -0.924665 
171 1 8.86201 -8.9317 1.96524 -1.54262 
350 2 -8.86201 -7.26063 1.89264 -1.54751 
387 2 -8.86201 -9.21116 0.751281 -1.36149 
396 2 -8.86201 -6.28715 -0.90041 0.185763 
207 1 8.86201 -2.81217 -1.38052 -1.3434 
233 1 8.86201 -3.14316 -1.98201 1.21624 
4 1 8.86201 -6.35077 -0.287238 0.984512 
56 1 8.86201 -2.85757 1.92639 0.812678 
91 1 8.86201 -4.81138 0.62659 -0.557868 
101 1 8.86201 -5.94982 0.386723 -1.44963 
107 1 8.86201 -4.20818 -0.403403 0.602175 
115 1 8.86201 -5.33138 1.99056 -1.50852 
120 1 8.86201 -3.74827 2.11884 -1.50136 
161 1 8.86201 -4.07869 -1.80607 -0.155142 
162 1 8.86201 -6.23162 0.877816 1.11574 
241 2 -8.86201 -4.42185 0.38869 1.46769 
244 2 -8.86201 -5.62165 -1.80284 1.12112 
259 2 -8.86201 -2.94724 -0.817359 0.187787 
333 2 -8.86201 -4.52135 0.157013 -1.43119 
344 2 -8.86201 -5.27102 -0.856796 -1.02069 
361 2 -8.86201 -2.68831 0.309713 0.256793 
377 2 -8.86201 -6.40222 1.29338 -1.17484 
425 2 -8.86201 -2.49983 -1.00127 1.28825 
448 2 -8.86201 -3.95984 -0.967053 -1.25506 
82 1 8.86201 -3.79673 1.15039 -0.994695 
129 1 8.86201 -6.13307 2.10499 1.45166 
42 1 8.86201 -1.75609 -1.45957 -1.25805 
182 1 8.86201 -1.92052 -0.784343 0.353913 
290 2 -8.86201 -1.18183 0.865053 1.41298 
7 1 8.86201 0.190301 -0.0106641 -1.27429 
71 1 8.86201 -1.02691 0.128412 0.19258 
87 1 8.86201 0.544736 -0.228894 1.49456 
98 1 8.86201 0.177412 -0.65419 0.216399 
119 1 8.86201 -0.419492 0.196965 1.09662 
126 1 8.86201 0.820179 1.11342 1.52914 
127 1 8.86201 -1.33656 -1.81137 0.503666 
188 1 8.86201 -0.682168 1.34323 -1.25819 
204 1 8.86201 -1.71245 2.09218 0.196354 
248 2 -8.86201 -0.893959 -1.44587 -0.621341 
274 2 -8.86201 0.693561 -1.02054 -0.630299 
312 2 -8.86201 -1.19885 0.352383 -1.30479 
373 2 -8.86201 1.65884 -0.119814 1.02656 
393 2 -8.86201 0.0830344 1.32026 -0.595427 
421 2 -8.86201 1.30638 -0.120329 -1.58738 
83 1 8.86201 0.667693 -1.76056 1.21046 
104 1 8.86201 1.55849 -1.41629 -1.20007 
258 2 -8.86201 1.64536 0.948111 -1.23358 
185 1 8.86201 0.773501 2.02668 -1.50387 
193 1 8.86201 1.82325 1.13061 1.02702 
411 2 -8.86201 0.713231 1.85525 0.326605 
320 2 -8.86201 5.14896 -1.98877 -0.0541831 
445 2 -8.86201 3.92346 -1.93923 -0.332658 
58 1 8.86201 2.82937 -0.143184 0.187054 
47 1 8.86201 5.04916 0.267386 -1.53242 
49 1 8.86201 4.15778 0.680093 0.0295704 
50 1 8.86201 4.47945 -1.78657 1.08781 
52 1 8.86201 5.80948 -1.12685 0.921789 
106 1 8.86201 3.43701 1.4101 -1.2954 
121 1 8.86201 4.65929 -0.373973 -0.125213 
165 1 8.86201 6.05432 0.56955 -1.28131 
217 1 8.86201 3.28411 -1.34184 0.692238 
220 1 8.86201 4.97537 0.972049 1.37001 
279 2 -8.86201 2.88752 0.899875 -0.373227 
284 2 -8.86201 3.10192 -0.0133767 1.26812 
292 2 -8.86201 6.28838 1.76534 0.777177 
314 2 -8.86201 4.889 1.54421 -1.39813 
342 2 -8.86201 4.79576 -1.07566 -1.49928 
357 2 -8.86201 6.25035 -2.10422 1.40836 
402 2 -8.86201 2.63491 -0.934567 -0.870618 
429 2 -8.86201 5.95547 -0.588929 -0.677968 
75 1 8.86201 6.32064 2.10113 -0.919334 
88 1 8.86201 6.12427 -0.0552613 0.946571 
273 2 -8.86201 6.21559 0.259153 -0.0740013 
447 2 -8.86201 10.2234 1.62464 1.26324 
223 1 8.86201 6.45493 -1.81453 -0.27722 
420 2 -8.86201 7.12104 -0.122547 -1.36428 
77 1 8.86201 8.46248 -0.074202 1.50001 
89 1 8.86201 8.0217 0.436241 -1.12428 
214 1 8.86201 7.2211 -1.94829 0.687092 
224 1 8.86201 9.24599 -0.333117 -1.25975 
236 1 8.86201 7.4529 1.55063 -1.43614 
237 1 8.86201 10.1008 1.13459 -1.21305 
358 2 -8.86201 7.99117 0.980118 0.552854 
381 2 -8.86201 9.54102 0.0310024 -0.252295 
181 1 8.86201 9.16074 1.91567 1.10471 
247 2 -8.86201 9.10634 1.39133 -1.04011 
328 2 -8.86201 -8.06411 3.01266 1.38796 
22 1 8.86201 -9.42455 2.63122 0.906395 
55 1 8.86201 -7.60319 3.10964 -1.50173 
60 1 8.86201 -10.2138 5.33268 -0.609948 
66 1 8.86201 -10.5171 3.8335 -0.271025 
109 1 8.86201 -8.75032 5.66768 -1.49779 
157 1 8.86201 -8.00717 2.62316 -0.653607 
195 1 8.86201 -9.39263 3.23134 -0.608978 
216 1 8.86201 -7.12836 6.11478 0.356328 
250 2 -8.86201 -7.05142 5.39135 -1.3205 
298 2 -8.86201 -8.32211 3.89224 -1.45793 
441 2 -8.86201 -7.24825 4.79303 1.54112 
388 2 -8.86201 -6.94709 3.69695 0.000935253 
29 1 8.86201 -9.58396 6.19948 -0.751832 
249 2 -8.86201 -3.56633 2.62286 -0.540932 
331 2 -8.86201 -4.54804 2.34908 0.087119 
341 2 -8.86201 -2.33531 2.85908 -0.548658 
21 1 8.86201 -2.72058 3.59353 0.368287 
33 1 8.86201 -5.27718 3.85194 1.22404 
46 1 8.86201 -2.52418 5.21999 -0.840548 
70 1 8.86201 -3.26391 3.14883 -1.49041 
153 1 8.86201 -5.43798 5.83301 -1.24028 
159 1 8.86201 -3.21353 4.48763 0.0670699 
175 1 8.86201 -6.33528 5.4362 0.822176 
210 1 8.86201 -4.54579 4.41396 -1.16818 
252 2 -8.86201 -5.66959 6.26972 0.426651 
257 2 -8.86201 -3.80509 5.47478 -1.17867 
276 2 -8.86201 -2.9055 4.03263 1.34929 
337 2 -8.86201 -2.15676 4.37624 -1.34617 
367 2 -8.86201 -5.75221 2.75113 -0.152486 
416 2 -8.86201 -4.21439 3.65268 1.25922 
229 1 8.86201 -2.60755 6.16707 -1.5504 
394 2 -8.86201 -3.39204 5.51958 0.269927 
20 1 8.86201 -1.445 5.36128 0.909263 
23 1 8.86201 0.16725 3.70264 -1.41287 
26 1 8.86201 2.11042 2.14594 -0.246432 
27 1 8.86201 1.47161 3.50972 1.58626 
69 1 8.86201 0.28045 5.60318 0.145513 
73 1 8.86201 -0.370627 4.40605 0.634446 
124 1 8.86201 -0.908349 2.74796 -0.418002 
137 1 8.86201 0.56415 2.92591 -0.574176 
173 1 8.86201 1.75267 6.33848 -0.832061 
234 1 8.86201 -1.42037 3.70385 1.52664 
246 2 -8.86201 -1.11289 5.33602 -0.578637 
263 2 -8.86201 -1.36707 3.48013 0.419919 
301 2 -8.86201 -0.722231 6.12621 1.02296 
335 2 -8.86201 2.10507 2.35459 -1.37133 
345 2 -8.86201 0.417947 5.63281 -1.04413 
401 2 -8.86201 1.53755 4.77449 -0.717093 
403 2 -8.86201 -1.29357 3.6741 -1.076 
410 2 -8.86201 0.618626 4.8359 1.4275 
423 2 -8.86201 0.00710147 2.68564 -1.55865 
427 2 -8.86201 0.452246 3.13043 1.10977 
31 1 8.86201 2.06157 3.59443 -1.10377 
354 2 -8.86201 1.70236 4.78034 0.469046 
86 1 8.86201 -0.646682 6.19128 -0.09839 
156 1 8.86201 -0.40855 6.41902 -1.05138 
308 2 -8.86201 2.55389 4.49036 -1.33495 
2 1 8.86201 3.72307 5.1349 1.46265 
9 1 8.86201 2.50871 4.81218 1.43555 
68 1 8.86201 6.07883 6.32957 -0.694779 
78 1 8.86201 4.87782 3.29886 -0.249534 
79 1 8.86201 3.04524 2.74416 -1.10059 
95 1 8.86201 4.06736 3.72391 1.48388 
178 1 8.86201 4.65544 4.76559 -0.000717993 
225 1 8.86201 4.64622 4.48305 -1.4293 
242 2 -8.86201 3.70422 5.34176 -1.36922 
287 2 -8.86201 4.85813 5.82316 -0.116314 
362 2 -8.86201 3.7469 2.49548 0.0304622 
372 2 -8.86201 2.62966 2.90022 0.361087 
386 2 -8.86201 4.80497 3.3766 -1.37437 
398 2 -8.86201 5.92198 2.76879 0.449958 
432 2 -8.86201 3.74026 4.09603 0.0215613 
443 2 -8.86201 5.70662 5.1745 -0.129827 
452 2 -8.86201 3.11591 6.0139 1.42091 
37 1 8.86201 5.75453 2.87973 -1.37232 
221 1 8.86201 5.66352 5.2308 -1.37762 
376 2 -8.86201 4.19197 6.32954 1.59265 
170 1 8.86201 10.5386 2.47673 -0.460072 
313 2 -8.86201 9.8933 5.03666 -1.21405 
80 1 8.86201 8.14414 5.07776 -1.49376 
81 1 8.86201 7.22725 6.10519 1.26269 
150 1 8.86201 7.05066 4.13277 -1.52806 
183 1 8.86201 8.15815 3.09487 -0.647634 
206 1 8.86201 9.31284 6.26582 1.45231 
260 2 -8.86201 6.80181 3.22321 -1.20193 
294 2 -8.86201 8.6266 5.60082 0.51758 
295 2 -8.86201 6.73609 5.47665 -1.1315 
318 2 -8.86201 9.42742 2.83488 0.472414 
378 2 -8.86201 10.0373 3.82586 1.21485 
397 2 -8.86201 7.18748 4.18968 0.325574 
65 1 8.86201 8.79553 5.98487 -0.705923 
140 1 8.86201 -8.03572 6.53088 -1.48311 
44 1 8.86201 -6.67893 9.95473 0.288516 
74 1 8.86201 -8.26235 7.63035 1.13901 
76 1 8.86201 -9.30703 9.81757 -1.38758 
116 1 8.86201 -8.10203 10.4605 -1.44515 
133 1 8.86201 -10.6592 8.57171 0.674811 
169 1 8.86201 -9.52632 6.70109 1.04518 
189 1 8.86201 -8.74198 10.3853 1.57391 
196 1 8.86201 -6.56176 7.11654 -0.149141 
208 1 8.86201 -9.42697 7.87584 -1.20741 
269 2 -8.86201 -10.456 10.0099 -1.37212 
352 2 -8.86201 -6.68638 7.68698 -1.35613 
380 2 -8.86201 -8.83226 9.8896 -0.188606 
442 2 -8.86201 -7.81893 7.95161 -0.39307 
285 2 -8.86201 -6.89531 8.37558 0.955747 
205 1 8.86201 -6.35625 7.53898 1.55456 
3 1 8.86201 -3.8047 6.72166 1.38319 
123 1 8.86201 -5.3218 7.51058 1.45364 
131 1 8.86201 -4.0689 7.44741 -0.204663 
13 1 8.86201 -4.31648 9.04824 0.0197641 
190 1 8.86201 -4.37686 6.55488 -1.08234 
197 1 8.86201 -5.31216 8.99261 -0.530817 
232 1 8.86201 -4.64189 8.31071 0.783316 
243 2 -8.86201 -3.62459 7.68119 -1.41868 
264 2 -8.86201 -2.16067 8.30707 0.557308 
265 2 -8.86201 -6.09821 8.14261 -0.485223 
296 2 -8.86201 -3.5711 7.78691 0.584681 
311 2 -8.86201 -5.8557 9.82704 -0.771717 
391 2 -8.86201 -3.12981 9.0471 1.4491 
419 2 -8.86201 -3.5022 9.27519 -0.696096 
430 2 -8.86201 -4.32204 9.64657 1.18326 
57 1 8.86201 0.354479 10.7009 -1.48619 
201 1 8.86201 0.37927 6.74619 0.777461 
6 1 8.86201 1.35372 9.00333 -0.352937 
64 1 8.86201 0.454909 7.0549 -0.93032 
114 1 8.86201 -1.84684 7.23038 0.434248 
135 1 8.86201 -0.330046 8.56303 -0.598983 
239 1 8.86201 0.289481 7.69933 -0.0177834 
303 2 -8.86201 -0.448813 9.75166 -0.174798 
327 2 -8.86201 -0.43072 7.54058 -1.01119 
363 2 -8.86201 -1.65251 7.52636 -0.649149 
407 2 -8.86201 -1.26124 8.77378 -1.53108 
413 2 -8.86201 0.130526 9.31352 -1.20056 
444 2 -8.86201 -0.635561 7.61102 0.456641 
399 2 -8.86201 2.11391 9.21261 -1.32117 
404 2 -8.86201 1.37196 7.53152 -1.11347 
422 2 -8.86201 3.62896 10.1623 -1.35739 
96 1 8.86201 3.50776 7.00588 -0.893503 
48 1 8.86201 6.23633 9.8473 1.48205 
97 1 8.86201 3.67379 8.49475 -0.594458 
179 1 8.86201 2.43692 7.2345 -1.48367 
200 1 8.86201 5.41475 10.4527 -1.08767 
203 1 8.86201 6.35048 7.08437 -1.49481 
209 1 8.86201 2.40687 8.35576 1.12505 
371 2 -8.86201 3.31565 8.97122 1.39693 
415 2 -8.86201 4.37576 7.66672 0.896966 
437 2 -8.86201 5.42784 9.35272 -0.462092 
449 2 -8.86201 5.81272 8.67261 -1.21403 
160 1 8.86201 9.36082 6.81236 -0.767324 
330 2 -8.86201 7.06157 10.1387 0.303999 
103 1 8.86201 7.23194 9.99656 -1.34552 
168 1 8.86201 8.76821 10.1386 -0.0858072 
186 1 8.86201 8.26198 8.1651 -0.484407 
191 1 8.86201 6.87955 8.179 0.874542 
271 2 -8.86201 8.31697 8.75861 0.537493 
310 2 -8.86201 8.99768 7.39426 0.0977259 
334 2 -8.86201 7.72029 7.05357 -0.547637 
409 2 -8.86201 7.27216 7.16258 1.08402 
ITEM: TIMESTEP
1100
ITEM: NUMBER OF ATOMS
452
ITEM: BOX BOUNDS pp pp ff
-1.0728100000000000e+01 1.0728100000000000e+01
-1.0728100000000000e+01 1.0728100000000000e+01
-2.1009400000000000e+00 2.1009400000000000e+00
ITEM: ATOMS id type q x y z 
10 1 8.86201 -7.92881 -8.33352 0.104585 
149 1 8.86201 -9.31588 -6.85125 0.874654 
174 1 8.86201 -7.04647 -8.67247 -0.395703 
180 1 8.86201 -6.7781 -9.7611 1.11369 
194 1 8.86201 -9.7091 -7.0901 -1.23768 
199 1 8.86201 -8.02059 -10.2578 1.17908 
226 1 8.86201 -7.52801 -6.64132 0.8168 
228 1 8.86201 -10.682 -6.82855 0.0413085 
282 2 -8.86201 -6.62047 10.7009 1.62747 
315 2 -8.86201 -7.15121 -9.62922 -0.838451 
338 2 -8.86201 -10.3873 -10.5005 -0.317911 
346 2 -8.86201 -6.82437 -7.43434 0.10702 
395 2 -8.86201 -9.07928 -8.17396 -0.629036 
424 2 -8.86201 -6.59924 -8.81651 -1.57628 
436 2 -8.86201 -10.261 -9.21573 -1.34363 
288 2 -8.86201 -5.57762 -7.25818 -1.36609 
8 1 8.86201 -4.17094 -9.03626 0.357518 
17 1 8.86201 -3.25777 -6.76645 0.59642 
51 1 8.86201 -6.3932 -10.5878 -0.436003 
61 1 8.86201 -3.5292 -8.76516 -0.812994 
108 1 8.86201 -4.04278 -7.85092 -0.736035 
117 1 8.86201 -2.83651 -9.88478 0.704798 
212 1 8.86201 -4.75927 -8.56698 1.28785 
213 1 8.86201 -2.82575 -10.05 -1.16635 
238 1 8.86201 -4.57002 -9.24992 -0.755085 
291 2 -8.86201 -5.03412 -9.8479 1.33671 
299 2 -8.86201 -2.95546 -8.09654 -0.211803 
317 2 -8.86201 -4.13913 -10.31 -1.40106 
360 2 -8.86201 -5.32658 -8.75619 0.136098 
383 2 -8.86201 -6.01459 -8.50509 1.04151 
412 2 -8.86201 -5.78362 -9.24276 -0.635261 
417 2 -8.86201 -3.65076 -7.85419 1.57086 
14 1 8.86201 -2.58245 -8.07211 1.07792 
281 2 -8.86201 -2.34879 -7.36506 0.014853 
300 2 -8.86201 -1.45799 -9.94726 -1.37645 
18 1 8.86201 -1.10593 -7.67355 -0.259149 
53 1 8.86201 0.881983 -8.77595 -1.25505 
67 1 8.86201 1.08188 -10.1766 1.25482 
158 1 8.86201 -1.70773 -10.1369 0.831297 
172 1 8.86201 -0.887137 -7.29385 -1.53837 
177 1 8.86201 -0.281293 -9.56918 -0.215693 
235 1 8.86201 1.27043 -7.73449 0.277059 
266 2 -8.86201 2.13879 -6.4113 0.449399 
289 2 -8.86201 1.3246 -9.66439 0.482452 
302 2 -8.86201 -0.739396 -10.5894 -0.777696 
336 2 -8.86201 2.05065 -8.26855 -0.285127 
343 2 -8.86201 -2.09319 -8.01467 -0.779078 
356 2 -8.86201 -0.656685 -8.28316 0.592186 
406 2 -8.86201 -1.20179 -8.18139 1.4267 
433 2 -8.86201 -0.832475 -8.33896 -1.15228 
438 2 -8.86201 0.283929 -7.35453 -1.09807 
54 1 8.86201 2.04097 -8.3765 0.995049 
99 1 8.86201 0.887112 -9.81983 -1.07528 
277 2 -8.86201 1.18737 -6.87144 1.12512 
382 2 -8.86201 1.35071 -7.61103 -0.779169 
230 1 8.86201 1.16097 -6.61429 -1.47132 
322 2 -8.86201 0.130699 -10.4634 1.61748 
414 2 -8.86201 0.975967 -10.569 -0.32293 
59 1 8.86201 2.76299 -10.5881 -1.50915 
15 1 8.86201 4.88362 -6.36549 0.478891 
28 1 8.86201 2.09352 -8.46389 -1.43826 
35 1 8.86201 3.3085 -8.77931 0.236227 
43 1 8.86201 5.76902 -7.61128 -0.115643 
63 1 8.86201 5.85938 -9.63011 -1.19071 
85 1 8.86201 4.83248 -8.40757 0.604238 
134 1 8.86201 5.69069 -9.9776 1.05645 
184 1 8.86201 4.06188 -7.99146 1.29007 
253 2 -8.86201 3.44774 -9.0653 -0.932193 
305 2 -8.86201 3.57619 -7.13756 0.470343 
329 2 -8.86201 4.6342 -7.44501 -0.492875 
353 2 -8.86201 5.56286 -8.10229 1.59581 
359 2 -8.86201 4.86689 -10.0336 -0.333497 
369 2 -8.86201 5.3109 -6.55016 -1.57676 
428 2 -8.86201 5.2166 -8.10947 -1.10517 
198 1 8.86201 4.01208 -7.53204 -1.36126 
426 2 -8.86201 5.33296 -6.59694 1.56531 
231 1 8.86201 9.33145 -7.16576 -0.789586 
256 2 -8.86201 6.68816 -9.04543 1.03912 
39 1 8.86201 6.47273 -10.4547 -0.177253 
100 1 8.86201 9.19684 -8.83741 0.182014 
122 1 8.86201 7.30281 -8.26367 0.661007 
148 1 8.86201 6.98956 -7.38556 -0.721831 
211 1 8.86201 6.63684 -7.27855 0.646218 
215 1 8.86201 8.60881 -8.70896 -1.0511 
297 2 -8.86201 8.93727 -9.74624 -1.4623 
321 2 -8.86201 8.00895 -9.75251 -0.148506 
405 2 -8.86201 8.96393 -9.90906 1.3906 
408 2 -8.86201 -10.6967 -8.33641 -1.01936 
439 2 -8.86201 6.57718 -8.57722 -0.580381 
379 2 -8.86201 7.28853 -6.53104 0.290529 
451 2 -8.86201 8.61207 -6.53476 -1.04562 
24 1 8.86201 -7.44328 -4.04292 -1.38641 
45 1 8.86201 -7.52014 -5.8093 1.36255 
93 1 8.86201 -7.70142 -5.42124 -1.13546 
94 1 8.86201 -7.58091 -2.78206 1.06403 
102 1 8.86201 -8.54325 -2.30581 -0.939972 
111 1 8.86201 -9.84917 -3.44581 1.24876 
146 1 8.86201 -9.50501 -2.62734 -0.297301 
151 1 8.86201 -6.94769 -4.4441 -0.128751 
219 1 8.86201 -9.21594 -5.85226 -0.270551 
255 2 -8.86201 -8.99192 -5.85124 -1.36201 
261 2 -8.86201 -8.67194 -4.08218 1.24034 
262 2 -8.86201 -7.5348 -3.3935 0.0851309 
270 2 -8.86201 -9.08585 -6.11314 1.53021 
272 2 -8.86201 -10.3506 -5.69518 -1.171 
351 2 -8.86201 -6.91545 -5.94675 -0.247739 
384 2 -8.86201 -8.56951 -2.88723 0.464775 
400 2 -8.86201 -9.65921 -4.01765 -0.420314 
392 2 -8.86201 -6.53718 -5.53681 1.29315 
30 1 8.86201 -2.71289 -6.44704 -1.35593 
112 1 8.86201 -6.39382 -2.36854 1.45224 
5 1 8.86201 -5.17192 -5.47589 -1.50277 
11 1 8.86201 -4.48203 -3.63128 -0.554918 
25 1 8.86201 -5.41475 -3.0273 -0.894683 
34 1 8.86201 -4.98397 -5.85054 1.51569 
40 1 8.86201 -3.13256 -2.2998 -1.48026 
84 1 8.86201 -2.20663 -5.66559 -0.565636 
92 1 8.86201 -3.57188 -5.61175 -0.0410018 
154 1 8.86201 -5.85842 -4.75706 1.43785 
283 2 -8.86201 -3.47414 -5.34837 1.14838 
306 2 -8.86201 -6.48039 -3.85936 -0.836828 
309 2 -8.86201 -2.57079 -5.53971 0.540421 
316 2 -8.86201 -5.95372 -5.41357 -0.420458 
324 2 -8.86201 -4.9732 -2.76295 0.132908 
375 2 -8.86201 -3.4153 -3.32333 -0.149949 
431 2 -8.86201 -4.69805 -5.3629 -0.26663 
38 1 8.86201 -2.78268 -4.85057 -1.06577 
62 1 8.86201 -6.20113 -2.65956 -0.228899 
254 2 -8.86201 -2.92963 -2.52062 0.286851 
268 2 -8.86201 -2.33965 -2.64861 -0.700908 
218 1 8.86201 0.546991 -6.08622 0.743125 
370 2 -8.86201 -1.72654 -3.59151 0.381739 
139 1 8.86201 1.76605 -5.33384 0.957881 
142 1 8.86201 -0.783415 -3.3532 1.53127 
144 1 8.86201 -0.275016 -3.87885 -0.692276 
152 1 8.86201 -0.406463 -5.50735 0.645724 
176 1 8.86201 -0.448587 -4.77558 -1.33444 
227 1 8.86201 1.85539 -4.78559 -0.000145228 
251 2 -8.86201 -1.14691 -5.09204 -0.169266 
267 2 -8.86201 1.6309 -4.52841 -1.02592 
307 2 -8.86201 0.710211 -4.24377 -1.54079 
349 2 -8.86201 0.761707 -5.36057 -0.554816 
355 2 -8.86201 0.157283 -2.95307 0.528375 
365 2 -8.86201 1.63358 -2.48651 -1.19677 
374 2 -8.86201 -1.60442 -3.21679 -1.50471 
389 2 -8.86201 -1.66751 -6.46985 -1.47816 
450 2 -8.86201 1.03244 -3.35667 1.04748 
319 2 -8.86201 -1.24982 -2.28646 1.61419 
41 1 8.86201 0.224113 -3.30219 -1.50171 
138 1 8.86201 -0.789613 -2.17628 -1.43104 
325 2 -8.86201 0.66703 -2.36237 -0.130999 
390 2 -8.86201 -1.04434 -2.94386 -0.488832 
323 2 -8.86201 6.07842 -6.13997 0.615204 
166 1 8.86201 2.25089 -3.29153 1.37481 
326 2 -8.86201 2.55496 -3.94826 -0.00191901 
105 1 8.86201 5.14299 -2.85519 1.18413 
118 1 8.86201 4.26601 -4.2459 -0.731989 
125 1 8.86201 5.40137 -3.78909 0.325817 
128 1 8.86201 4.24017 -3.95586 1.5547 
136 1 8.86201 5.70896 -4.62464 -1.40296 
141 1 8.86201 3.90957 -4.89524 0.53273 
145 1 8.86201 3.06125 -5.98788 -0.110787 
147 1 8.86201 4.3312 -2.60707 -1.54389 
192 1 8.86201 2.80954 -4.5133 -1.34481 
293 2 -8.86201 5.35924 -5.18771 -0.133393 
340 2 -8.86201 4.79693 -4.98468 -1.60809 
348 2 -8.86201 4.58007 -6.19473 -0.865992 
366 2 -8.86201 3.6775 -3.28181 0.113656 
440 2 -8.86201 5.71776 -3.91595 1.48832 
113 1 8.86201 6.3008 -6.31044 -0.930288 
202 1 8.86201 2.24136 -3.04194 -0.583622 
32 1 8.86201 8.26532 -6.31554 1.32514 
16 1 8.86201 10.6248 -4.80954 -0.343521 
163 1 8.86201 9.66241 -5.6176 1.38518 
446 2 -8.86201 10.4816 -5.43733 0.560244 
222 1 8.86201 8.10183 -2.26003 -0.157263 
286 2 -8.86201 6.59685 -2.68235 -1.06366 
1 1 8.86201 10.1806 -3.75527 -0.263894 
36 1 8.86201 6.74829 -5.25685 0.790714 
72 1 8.86201 10.0677 -6.07179 -1.23406 
132 1 8.86201 8.96298 -4.28602 -0.750398 
164 1 8.86201 8.89817 -3.60889 0.283012 
187 1 8.86201 7.34307 -4.49508 0.386184 
245 2 -8.86201 7.8612 -5.17722 0.925397 
278 2 -8.86201 7.93756 -3.30361 0.922371 
304 2 -8.86201 8.84161 -3.27903 -0.73824 
332 2 -8.86201 8.64459 -4.76457 1.47131 
347 2 -8.86201 8.45738 -4.5908 0.324781 
385 2 -8.86201 10.4862 -4.52499 -1.59309 
155 1 8.86201 10.3433 -2.38752 0.0535841 
240 1 8.86201 8.19072 -2.35689 -1.33088 
434 2 -8.86201 -6.62321 -1.68853 -1.3713 
12 1 8.86201 -6.61662 0.12637 0.00705793 
19 1 8.86201 -8.23454 -0.791617 0.312694 
90 1 8.86201 -10.1226 -1.07697 -1.28585 
110 1 8.86201 -9.175 0.618177 0.0425857 
130 1 8.86201 -8.37318 -0.716493 1.39762 
143 1 8.86201 -7.98172 1.29657 -0.984373 
167 1 8.86201 -7.5707 0.407638 1.39748 
275 2 -8.86201 -10.0339 0.378107 1.26782 
280 2 -8.86201 -9.90882 -0.821067 -0.315064 
339 2 -8.86201 -8.98376 -1.42892 -1.49945 
364 2 -8.86201 -8.03527 1.54317 0.539437 
368 2 -8.86201 -7.75515 0.113953 0.0193839 
418 2 -8.86201 -7.14694 -0.788976 -1.10506 
435 2 -8.86201 -10.4411 0.422096 -0.806935 
171 1 8.86201 -8.92495 1.85244 -1.43633 
350 2 -8.86201 -7.26351 1.90521 -1.57123 
387 2 -8.86201 -9.06904 0.648522 -1.18428 
396 2 -8.86201 -6.18558 -0.812949 0.275262 
207 1 8.86201 -2.75104 -1.2734 -1.26413 
233 1 8.86201 -3.16176 -1.80945 1.26687 
4 1 8.86201 -6.22933 -0.262005 1.22016 
56 1 8.86201 -2.90581 1.94607 0.916015 
91 1 8.86201 -5.05211 0.593856 -0.499248 
101 1 8.86201 -5.84351 0.252539 -1.43746 
107 1 8.86201 -4.16092 -0.549908 0.739568 
115 1 8.86201 -5.45149 2.13888 -1.59408 
120 1 8.86201 -3.78329 2.0691 -1.53304 
161 1 8.86201 -4.06966 -1.8138 -0.0736041 
162 1 8.86201 -6.20939 0.961717 1.18885 
241 2 -8.86201 -4.52521 0.407985 1.58101 
244 2 -8.86201 -5.62187 -1.78252 0.907892 
259 2 -8.86201 -2.91806 -0.808653 0.22954 
333 2 -8.86201 -4.53105 0.226025 -1.45136 
344 2 -8.86201 -5.30261 -0.895978 -0.905563 
361 2 -8.86201 -2.61461 0.294763 0.494071 
377 2 -8.86201 -6.46575 1.38363 -1.03809 
425 2 -8.86201 -2.31527 -0.910163 1.42879 
448 2 -8.86201 -4.04118 -0.950825 -1.15233 
82 1 8.86201 -3.87883 1.13295 -0.979057 
129 1 8.86201 -6.11021 2.05892 1.60477 
42 1 8.86201 -1.68261 -1.577 -1.32475 
182 1 8.86201 -1.8372 -0.834739 0.455009 
290 2 -8.86201 -1.05937 1.00553 1.49942 
7 1 8.86201 0.177889 -0.165896 -1.12094 
71 1 8.86201 -0.991154 0.246499 0.173721 
87 1 8.86201 0.626603 -0.320044 1.40358 
98 1 8.86201 0.15682 -0.660272 0.334562 
119 1 8.86201 -0.547612 0.168871 1.12352 
126 1 8.86201 0.787417 1.17213 1.29599 
127 1 8.86201 -1.4969 -1.80149 0.517111 
188 1 8.86201 -0.534579 1.37953 -1.36766 
204 1 8.86201 -1.72444 2.16404 0.269536 
248 2 -8.86201 -0.854286 -1.54636 -0.410019 
274 2 -8.86201 0.693652 -1.13342 -0.44126 
312 2 -8.86201 -1.2932 0.537858 -1.19415 
373 2 -8.86201 1.68957 -0.263888 1.18697 
393 2 -8.86201 0.141105 1.23963 -0.38741 
421 2 -8.86201 1.41509 -0.172106 -1.50862 
83 1 8.86201 0.419669 -1.88923 1.37869 
104 1 8.86201 1.43685 -1.40206 -1.0742 
258 2 -8.86201 1.66729 0.872379 -1.21003 
185 1 8.86201 0.779582 1.94106 -1.52421 
193 1 8.86201 1.95278 0.974395 1.16375 
411 2 -8.86201 0.842988 1.65516 0.380487 
320 2 -8.86201 5.27882 -2.03962 0.0480745 
445 2 -8.86201 4.06058 -1.83656 -0.322886 