ITEM: TIMESTEP
1000
ITEM: NUMBER OF ATOMS
452
ITEM: BOX BOUNDS pp pp ff
-1.0728100000000000e+01 1.0728100000000000e+01
-1.0728100000000000e+01 1.0728100000000000e+01
-2.1009400000000000e+00 2.1009400000000000e+00
ITEM: ATOMS id type q x y z 
3 1 8.86201 -10.2827 -10.2213 0.676528 
6 1 8.86201 -10.4487 -10.2487 -0.699055 
85 1 8.86201 -9.02913 -10.6121 -1.52645 
87 1 8.86201 -8.74128 -10.1227 0.227593 
89 1 8.86201 -9.79812 -9.44353 -1.51819 
90 1 8.86201 -9.37243 -10.0051 -0.53072 
91 1 8.86201 -9.18446 -9.02129 0.328749 
92 1 8.86201 -9.22853 -9.62066 1.56386 
94 1 8.86201 -8.6324 -8.77885 -0.544107 
95 1 8.86201 -8.59576 -8.03523 0.415616 
96 1 8.86201 -9.75182 -8.69442 1.54364 
97 1 8.86201 -9.80846 -7.1137 -1.56209 
98 1 8.86201 -8.8721 -7.70531 -0.693214 
99 1 8.86201 -9.75737 -7.46178 0.414005 
100 1 8.86201 -9.88356 -7.40967 1.49486 
169 1 8.86201 -7.87276 -10.5771 -1.51185 
173 1 8.86201 -8.53926 -9.606 -1.22195 
174 1 8.86201 -7.34247 -10.3787 -0.598513 
175 1 8.86201 -8.049 -9.0786 0.380768 
176 1 8.86201 -7.26063 -9.79182 1.5553 
177 1 8.86201 -9.66545 -8.24532 -1.52468 
178 1 8.86201 -7.53017 -9.09432 -0.59525 
179 1 8.86201 -7.48712 -8.23511 0.550352 
180 1 8.86201 -8.24987 -9.14166 1.48215 
181 1 8.86201 -7.5998 -7.47094 -1.51734 
182 1 8.86201 -7.83444 -8.1019 -0.708677 
183 1 8.86201 -7.87759 -7.32616 0.226092 
184 1 8.86201 -8.78563 -8.01214 1.49751 
253 2 -8.86201 -6.89004 -10.4221 -1.51527 
254 2 -8.86201 -6.5972 -10.6002 0.101624 
257 2 -8.86201 -7.64318 -9.53645 -1.5544 
258 2 -8.86201 -6.68987 -9.53392 -0.313036 
259 2 -8.86201 -7.58571 -10.0661 0.624336 
260 2 -8.86201 -6.58572 -8.93703 1.54416 
261 2 -8.86201 -8.63406 -8.50049 -1.58742 
262 2 -8.86201 -6.82945 -8.37457 -0.233932 
263 2 -8.86201 -7.07954 -9.17891 0.615481 
264 2 -8.86201 -7.68758 -8.25131 1.55584 
265 2 -8.86201 -6.61869 -7.34725 -1.56509 
266 2 -8.86201 -7.2121 -7.20469 -0.671268 
267 2 -8.86201 -7.10205 -7.33022 0.961407 
268 2 -8.86201 -8.0765 -7.19274 1.57396 
341 2 -8.86201 -6.64547 -9.33611 -1.53793 
345 2 -8.86201 -7.2381 -8.39062 -1.51286 
352 2 -8.86201 -6.62619 -7.91858 1.60905 
102 1 8.86201 -9.29198 -6.57613 -0.413955 
103 1 8.86201 -8.52608 -6.56441 0.393902 
185 1 8.86201 -8.97694 -6.55114 -1.51961 
186 1 8.86201 -8.22537 -6.93024 -0.685168 
187 1 8.86201 -7.49348 -6.45661 0.663234 
337 2 -8.86201 -5.71504 -10.2749 -1.54873 
342 2 -8.86201 -5.68098 -9.84497 -0.602318 
343 2 -8.86201 -6.38778 -10.0326 1.0663 
344 2 -8.86201 -4.67581 -10.1321 1.53321 
346 2 -8.86201 -6.08839 -8.37742 -1.06956 
347 2 -8.86201 -5.85748 -9.10422 0.27483 
348 2 -8.86201 -5.59625 -8.67966 1.43189 
349 2 -8.86201 -5.51551 -7.61301 -1.54743 
350 2 -8.86201 -6.1887 -7.32487 -0.53498 
351 2 -8.86201 -6.0616 -8.00792 0.465739 
425 2 -8.86201 -3.43471 -9.67336 -1.53827 
427 2 -8.86201 -2.29028 -9.4048 0.318129 
428 2 -8.86201 -3.4729 -9.62627 1.47917 
429 2 -8.86201 -4.95251 -8.71762 -1.55515 
430 2 -8.86201 -3.93936 -9.03769 -0.293978 
431 2 -8.86201 -2.55944 -8.29999 1.1976 
432 2 -8.86201 -4.29187 -8.4626 1.57631 
433 2 -8.86201 -4.10367 -7.12324 -1.55062 
434 2 -8.86201 -4.14278 -7.64956 -0.0931659 
435 2 -8.86201 -2.75127 -6.8998 1.15513 
436 2 -8.86201 -5.17113 -7.69458 1.56724 
356 2 -8.86201 -6.13288 -6.88994 1.26623 
1 1 8.86201 9.87643 -10.3726 -1.52781 
5 1 8.86201 9.89289 -9.26749 -1.56997 
7 1 8.86201 8.84389 -9.3544 0.732388 
8 1 8.86201 10.2591 -10.4609 1.58598 
9 1 8.86201 8.86499 -8.16582 -1.49061 
10 1 8.86201 9.78756 -9.03371 -0.12896 
11 1 8.86201 9.96171 -7.90013 0.53077 
12 1 8.86201 10.5648 -9.36283 1.51203 
13 1 8.86201 10.4801 -6.98146 -1.56549 
14 1 8.86201 9.94716 -7.98069 -0.818189 
15 1 8.86201 7.78457 -6.75866 1.11155 
16 1 8.86201 10.5963 -8.30252 1.51132 
93 1 8.86201 10.5315 -8.41905 -1.55887 
18 1 8.86201 8.2489 -6.95272 -0.643385 
19 1 8.86201 -10.3387 -6.31443 0.907479 
24 1 8.86201 -10.1644 -5.43027 1.55037 
29 1 8.86201 -10.5466 -3.37497 -1.54392 
35 1 8.86201 -10.1654 -2.27075 0.637602 
104 1 8.86201 -9.42029 -6.34062 1.51101 
105 1 8.86201 -9.67362 -5.56879 -1.45154 
106 1 8.86201 -9.95732 -5.64476 -0.367757 
107 1 8.86201 -9.55141 -5.41596 0.731477 
108 1 8.86201 -8.72756 -5.26925 1.58874 
109 1 8.86201 -9.16202 -4.42926 -1.53388 
110 1 8.86201 -8.45342 -4.83867 -0.609787 
112 1 8.86201 -9.24573 -3.92875 1.33712 
113 1 8.86201 -8.76868 -3.32875 -1.56219 
114 1 8.86201 -9.88251 -3.60741 -0.573941 
115 1 8.86201 -8.31478 -3.53454 0.4666 
116 1 8.86201 -9.47579 -2.67894 1.58284 
117 1 8.86201 -9.51504 -2.48908 -1.48318 
118 1 8.86201 -8.70066 -2.64768 -0.692015 
119 1 8.86201 -8.93183 -2.56693 0.569746 
120 1 8.86201 -8.42622 -2.19633 1.62187 
188 1 8.86201 -8.16224 -6.16547 1.60574 
189 1 8.86201 -8.57822 -5.33389 -1.55188 
190 1 8.86201 -8.41581 -5.89589 -0.647027 
191 1 8.86201 -8.17049 -5.5239 0.688779 
192 1 8.86201 -7.55512 -5.36735 1.57308 
193 1 8.86201 -8.11111 -4.13848 -1.55835 
194 1 8.86201 -7.00814 -4.32814 -0.406459 
195 1 8.86201 -8.69035 -4.62649 0.453673 
196 1 8.86201 -7.81548 -4.39571 1.53321 
197 1 8.86201 -7.65935 -3.19582 -1.49111 
198 1 8.86201 -8.84569 -3.69118 -0.568963 
199 1 8.86201 -7.23238 -3.14171 0.462836 
200 1 8.86201 -8.33471 -3.26731 1.57093 
201 1 8.86201 -8.15447 -2.29889 -1.55491 
202 1 8.86201 -7.47022 -2.23327 -0.391751 
269 2 -8.86201 -8.00232 -6.22001 -1.55625 
270 2 -8.86201 -7.45916 -6.27082 -0.349112 
271 2 -8.86201 -6.49271 -6.37863 0.293841 
272 2 -8.86201 -7.03777 -6.25453 1.57581 
273 2 -8.86201 -7.53975 -5.07563 -1.38124 
274 2 -8.86201 -7.57516 -5.23446 -0.216347 
275 2 -8.86201 -7.10906 -5.44483 0.700481 
276 2 -8.86201 -6.76684 -4.70377 1.60398 
277 2 -8.86201 -7.04954 -4.08301 -1.48581 
279 2 -8.86201 -7.62591 -4.47349 0.462298 
280 2 -8.86201 -7.0825 -3.62238 1.43589 
281 2 -8.86201 -6.65752 -2.97018 -1.56026 
282 2 -8.86201 -7.83736 -3.30858 -0.486278 
283 2 -8.86201 -6.78377 -3.08186 -0.434393 
284 2 -8.86201 -7.4953 -2.58526 1.47986 
353 2 -8.86201 -6.86081 -6.10308 -1.60084 
357 2 -8.86201 -6.46139 -4.95029 -1.53801 
363 2 -8.86201 -6.64934 -4.14112 0.510698 
368 2 -8.86201 -6.45638 -2.79175 1.24285 
122 1 8.86201 -10.5821 -2.3918 -0.847198 
278 2 -8.86201 -5.937 -4.18339 -0.353365 
354 2 -8.86201 -6.12715 -5.97608 -0.768513 
355 2 -8.86201 -5.19556 -6.35046 0.451611 
358 2 -8.86201 -5.53075 -4.97617 -0.907313 
359 2 -8.86201 -5.61428 -4.83047 0.468957 
360 2 -8.86201 -5.96061 -5.70183 1.41212 
361 2 -8.86201 -5.95159 -4.03619 -1.5684 
362 2 -8.86201 -5.11925 -3.44318 0.130902 
364 2 -8.86201 -5.9234 -4.02786 1.4446 
365 2 -8.86201 -4.43027 -2.88724 -1.53863 
366 2 -8.86201 -5.66112 -3.19908 -0.861962 
367 2 -8.86201 -5.71694 -2.36749 0.54779 
372 2 -8.86201 -4.87932 -2.66021 1.52665 
437 2 -8.86201 -3.51974 -5.72857 -1.55901 
438 2 -8.86201 -4.51564 -6.38485 -0.828852 
439 2 -8.86201 -2.74217 -5.32792 0.643419 
440 2 -8.86201 -4.12721 -5.90062 1.46113 
441 2 -8.86201 -4.83451 -4.21394 -1.46914 
442 2 -8.86201 -3.63446 -4.69387 -0.720035 
443 2 -8.86201 -2.75927 -3.89866 0.909759 
444 2 -8.86201 -3.63157 -4.4932 1.45855 
445 2 -8.86201 -2.39358 -3.06063 -1.51549 
447 2 -8.86201 -3.21739 -2.73376 0.214458 
448 2 -8.86201 -4.84401 -3.77194 1.51675 
446 2 -8.86201 -2.12418 -3.49714 -0.503366 
17 1 8.86201 8.25109 -6.21424 -1.55331 
20 1 8.86201 9.33741 -6.35871 1.44505 
21 1 8.86201 9.68201 -5.13035 -1.55352 
22 1 8.86201 8.27813 -5.57286 -0.290043 
23 1 8.86201 9.67586 -5.45437 0.352054 
25 1 8.86201 8.34117 -3.4155 -1.51675 
26 1 8.86201 10.6824 -4.32093 -1.07956 
27 1 8.86201 8.20761 -4.02872 0.333159 
28 1 8.86201 9.62986 -4.48053 1.5155 
30 1 8.86201 10.1154 -3.20097 -0.58598 
31 1 8.86201 8.48193 -2.55499 0.518063 
32 1 8.86201 8.986 -3.31883 1.55566 
36 1 8.86201 10.336 -2.48156 1.54413 
101 1 8.86201 10.6121 -5.8325 -1.548 
111 1 8.86201 10.3649 -4.01537 0.882417 
203 1 8.86201 -6.90089 -2.1428 0.623662 
204 1 8.86201 -6.74126 -1.58681 1.56131 
285 2 -8.86201 -7.15463 -2.07576 -1.47147 
286 2 -8.86201 -6.50375 -1.7819 -0.471315 
40 1 8.86201 -10.5893 -1.08211 1.53342 
46 1 8.86201 -10.5704 0.491319 -1.39535 
121 1 8.86201 -10.0129 -0.930573 -1.5577 
123 1 8.86201 -9.13786 -0.874326 0.176921 
124 1 8.86201 -9.19806 -1.56483 1.41602 
125 1 8.86201 -9.21293 -0.0901117 -1.56643 
126 1 8.86201 -9.40185 0.339839 -0.282713 
127 1 8.86201 -10.4418 -0.667771 0.506915 
128 1 8.86201 -10.3169 -0.0680103 1.45297 
129 1 8.86201 -9.54913 1.65877 -1.54345 
130 1 8.86201 -7.69699 0.185242 -0.599274 
131 1 8.86201 -9.45829 0.517706 1.07929 
132 1 8.86201 -8.16316 1.41248 1.57505 
133 1 8.86201 -8.30119 2.00072 -1.55611 
134 1 8.86201 -8.95998 1.42759 -0.533981 
205 1 8.86201 -7.91586 -1.25768 -1.56941 
206 1 8.86201 -9.08696 -1.50859 -1.56258 
207 1 8.86201 -8.01406 -1.40753 0.849053 
208 1 8.86201 -7.60563 -0.742083 1.56895 
209 1 8.86201 -7.51402 -0.207539 -1.58403 
210 1 8.86201 -8.5194 -0.468542 -0.870275 
211 1 8.86201 -7.99072 -0.344511 0.32208 
212 1 8.86201 -8.51186 -0.0743275 1.42 
213 1 8.86201 -8.50165 0.811575 -1.44572 
214 1 8.86201 -6.69698 0.0781543 -0.584064 
215 1 8.86201 -8.55927 0.569065 0.471335 
216 1 8.86201 -6.5999 1.18114 1.56243 
217 1 8.86201 -7.15206 1.89602 -1.56233 
218 1 8.86201 -7.8112 1.53572 -0.748459 
219 1 8.86201 -9.12741 1.63116 0.688548 
220 1 8.86201 -7.26301 1.86303 1.15922 
289 2 -8.86201 -6.82985 -1.04676 -1.54941 
290 2 -8.86201 -8.52187 -1.55902 -0.397603 
291 2 -8.86201 -7.07089 -1.21519 0.307533 
292 2 -8.86201 -6.58801 -0.526217 1.44821 
294 2 -8.86201 -7.70186 -0.880352 -0.50446 
295 2 -8.86201 -6.97328 -0.122848 0.496831 
296 2 -8.86201 -7.65709 0.503557 1.58102 
297 2 -8.86201 -7.47834 0.861669 -1.56029 
299 2 -8.86201 -7.60228 0.859978 0.688098 
302 2 -8.86201 -7.11716 0.978509 -0.269764 
303 2 -8.86201 -8.22618 1.5364 0.261095 
381 2 -8.86201 -6.47514 1.21581 -1.36414 
306 2 -8.86201 -6.82326 1.92009 -0.548148 
287 2 -8.86201 -6.098 -1.13951 0.555385 
288 2 -8.86201 -5.77939 -1.99832 1.57759 
369 2 -8.86201 -5.95431 -1.83121 -1.56689 
370 2 -8.86201 -4.75261 -1.11501 -1.0514 
371 2 -8.86201 -4.62776 -1.42984 0.467629 
449 2 -8.86201 -2.85683 -1.10886 -1.55789 
450 2 -8.86201 -2.83474 -1.93672 -0.531123 
451 2 -8.86201 -2.67559 -0.48296 0.831351 
452 2 -8.86201 -3.06313 -2.10642 1.45408 
293 2 -8.86201 -6.28655 0.129116 -1.58674 
298 2 -8.86201 -6.11175 0.636247 -0.0045114 
300 2 -8.86201 -5.57795 1.00006 1.53181 
373 2 -8.86201 -5.63004 -0.826711 -1.49293 
374 2 -8.86201 -6.2891 -0.832954 -0.520591 
375 2 -8.86201 -5.56784 -0.199505 0.439344 
376 2 -8.86201 -5.03828 -0.94031 1.5385 
377 2 -8.86201 -3.85979 0.256775 -1.51255 
378 2 -8.86201 -5.05805 0.48436 -0.8899 
379 2 -8.86201 -4.13409 0.140879 0.538844 
380 2 -8.86201 -5.62683 -0.0760657 1.47111 
382 2 -8.86201 -3.65238 1.04464 -0.53558 
383 2 -8.86201 -5.24181 1.38458 0.55292 
384 2 -8.86201 -4.29009 0.567767 1.51804 
385 2 -8.86201 -4.53969 1.86498 -1.56385 
386 2 -8.86201 -5.44119 1.77283 -0.462258 
387 2 -8.86201 -6.42609 1.39751 0.567671 
388 2 -8.86201 -4.97236 1.86446 1.49185 
33 1 8.86201 10.1156 -1.47317 -1.58682 
34 1 8.86201 8.16671 -2.05157 -0.931082 
37 1 8.86201 8.46442 -1.23676 -1.55468 
38 1 8.86201 7.40935 -0.991343 -0.250153 
39 1 8.86201 9.97611 -1.39617 0.495261 
41 1 8.86201 8.30766 0.166417 -1.54049 
42 1 8.86201 10.5255 -0.656163 -1.01929 
43 1 8.86201 7.55546 -0.363055 0.727464 
44 1 8.86201 9.19414 0.35551 1.50805 
45 1 8.86201 9.17177 1.36301 -1.47699 
47 1 8.86201 9.47928 0.705021 -0.0147922 
48 1 8.86201 9.46917 1.52592 1.53638 
49 1 8.86201 10.4374 2.13651 -1.56632 
50 1 8.86201 9.47146 1.89426 -0.0569153 
51 1 8.86201 7.7426 1.80555 0.840262 
53 1 8.86201 7.77829 2.13514 -1.55041 
52 1 8.86201 -10.7072 2.24781 1.51574 
135 1 8.86201 -9.95733 2.33369 0.453343 
136 1 8.86201 -8.79705 2.14568 1.52311 
55 1 8.86201 -10.563 3.39153 1.32584 
66 1 8.86201 -10.245 6.31576 -0.770759 
137 1 8.86201 -9.10046 2.84343 -1.55957 
138 1 8.86201 -8.35018 2.34677 -0.376092 
139 1 8.86201 -7.81682 2.69866 0.625759 
140 1 8.86201 -9.45477 3.44052 1.41011 
141 1 8.86201 -8.05966 4.27984 -1.56383 
142 1 8.86201 -9.88876 3.56029 -1.06248 
143 1 8.86201 -8.9838 4.15319 0.548801 
144 1 8.86201 -10.5937 4.89519 1.50536 
145 1 8.86201 -9.75484 5.58168 -1.53343 
146 1 8.86201 -8.88543 4.77107 -0.720053 
147 1 8.86201 -9.85937 5.50869 0.66221 
148 1 8.86201 -9.0845 5.46331 1.51093 
149 1 8.86201 -8.37481 6.32509 -1.56914 
150 1 8.86201 -8.42792 5.96747 -0.17689 
152 1 8.86201 -9.91934 6.39983 1.46491 
221 1 8.86201 -8.10115 3.00794 -1.4697 
222 1 8.86201 -7.33348 2.84242 -0.361126 
223 1 8.86201 -6.78541 2.38894 0.439562 
224 1 8.86201 -8.23044 3.03106 1.54399 
225 1 8.86201 -7.01552 4.07889 -1.58201 
226 1 8.86201 -9.05174 3.30376 -0.354073 
227 1 8.86201 -7.93212 3.7423 0.493879 
228 1 8.86201 -8.60773 4.44213 1.56494 
229 1 8.86201 -8.17433 5.30839 -1.25915 
230 1 8.86201 -7.36273 5.02484 -0.487983 
231 1 8.86201 -8.21768 5.35076 0.72976 
232 1 8.86201 -7.26765 5.18558 1.55752 
233 1 8.86201 -7.11423 6.25555 -1.57965 
235 1 8.86201 -6.72195 5.49899 0.490497 
236 1 8.86201 -7.83149 6.2205 1.23147 
305 2 -8.86201 -7.04241 2.9511 -1.40623 
308 2 -8.86201 -7.20871 2.90323 1.54806 
310 2 -8.86201 -8.11 3.97307 -0.570886 
311 2 -8.86201 -6.98796 3.4549 0.451052 
312 2 -8.86201 -7.72206 3.9406 1.57165 
313 2 -8.86201 -7.18853 5.16689 -1.56935 
315 2 -8.86201 -7.45853 4.70299 0.54971 
320 2 -8.86201 -6.81313 6.27392 1.4766 
394 2 -8.86201 -6.93434 3.88655 -0.529873 
396 2 -8.86201 -6.62479 3.79466 1.51726 
155 1 8.86201 -9.30819 6.34082 0.221539 
301 2 -8.86201 -6.15558 2.29765 -1.54482 
304 2 -8.86201 -6.32968 2.19873 1.51595 
307 2 -8.86201 -5.67897 2.61122 0.303705 
309 2 -8.86201 -6.07829 3.41299 -1.44173 
314 2 -8.86201 -6.37335 4.7904 -0.602832 
316 2 -8.86201 -6.27911 5.03066 1.451 
317 2 -8.86201 -6.19925 5.535 -1.57404 
318 2 -8.86201 -6.32924 5.83572 -0.598642 
319 2 -8.86201 -5.51707 5.19974 0.580212 
389 2 -8.86201 -5.20426 2.90994 -1.52578 
390 2 -8.86201 -5.31178 3.37134 -0.481921 
391 2 -8.86201 -3.37269 2.2014 0.982351 
392 2 -8.86201 -5.54615 3.20533 1.5076 
393 2 -8.86201 -4.24438 3.63302 -1.57719 
395 2 -8.86201 -4.84168 3.51866 0.691584 
397 2 -8.86201 -6.12051 4.51868 -1.56727 
398 2 -8.86201 -4.99422 4.45597 -0.507238 
399 2 -8.86201 -6.19911 4.20991 0.603634 
400 2 -8.86201 -4.59709 4.4175 1.41258 
401 2 -8.86201 -4.47552 5.01069 -1.52249 
402 2 -8.86201 -4.98152 5.63239 -0.375819 
403 2 -8.86201 -3.21927 5.51505 1.24827 
404 2 -8.86201 -5.78305 6.07627 1.56352 
54 1 8.86201 10.1358 3.06916 -0.470919 
56 1 8.86201 7.77859 2.77208 1.397 
57 1 8.86201 10.3094 3.53888 -1.54015 
58 1 8.86201 7.29652 3.78565 0.0254927 
59 1 8.86201 10.6625 4.73606 -0.067892 
60 1 8.86201 8.86353 3.80921 1.47696 
61 1 8.86201 10.1418 4.77886 -1.5093 
62 1 8.86201 9.0368 4.60664 -0.773528 
63 1 8.86201 9.93759 5.78739 0.58148 
64 1 8.86201 8.38594 5.14698 1.44951 
65 1 8.86201 8.54991 5.65688 -1.53996 
68 1 8.86201 10.0579 6.35981 1.58573 
86 1 8.86201 -8.36312 10.5886 -0.532255 
88 1 8.86201 -9.08188 10.6392 1.60087 
170 1 8.86201 -7.23837 10.0151 -0.633537 
171 1 8.86201 -7.67563 10.3819 0.330847 
172 1 8.86201 -7.92305 10.3357 1.30214 
255 2 -8.86201 -7.63196 9.07279 0.109213 
256 2 -8.86201 -6.91192 10.6534 1.58868 
151 1 8.86201 -7.77279 6.62424 0.253515 
234 1 8.86201 -7.18072 6.4637 -0.566185 
79 1 8.86201 -10.6901 9.96884 0.406861 
81 1 8.86201 -10.3189 10.3494 -1.57076 
153 1 8.86201 -9.67019 6.64923 -1.5197 
154 1 8.86201 -7.90291 7.69539 -0.25391 
156 1 8.86201 -8.73362 6.59258 1.58039 
158 1 8.86201 -9.42681 7.15195 -0.641738 
159 1 8.86201 -10.2992 8.19929 0.312928 
160 1 8.86201 -9.96532 8.00389 1.54786 
161 1 8.86201 -10.3317 9.15412 -1.56205 
163 1 8.86201 -9.80811 9.17438 0.487277 
165 1 8.86201 -9.3157 9.80147 -1.55701 
166 1 8.86201 -10.1287 9.71653 -0.454255 
167 1 8.86201 -9.40558 10.34 0.381576 
168 1 8.86201 -10.5104 10.1408 1.56488 
237 1 8.86201 -8.64356 7.3696 -1.40845 
239 1 8.86201 -6.94867 7.17208 0.229097 
240 1 8.86201 -7.43979 7.27845 1.55153 
241 2 -8.86201 -9.73984 7.79376 -1.52355 
242 2 -8.86201 -8.94205 8.14972 -0.440524 
243 2 -8.86201 -9.66297 7.27393 0.633542 
244 2 -8.86201 -8.82424 7.62662 1.57056 
245 2 -8.86201 -9.32202 8.78722 -1.55566 
246 2 -8.86201 -10.1622 8.64456 -0.597393 
247 2 -8.86201 -9.25179 8.30256 0.503339 
248 2 -8.86201 -10.3494 9.08506 1.53981 
249 2 -8.86201 -8.35792 9.96725 -1.5674 
250 2 -8.86201 -9.13257 9.68892 -0.549473 
251 2 -8.86201 -8.64618 9.71355 0.453739 
252 2 -8.86201 -9.51109 9.72215 1.36402 
321 2 -8.86201 -7.6832 7.15662 -1.52674 
325 2 -8.86201 -8.39393 8.3959 -1.59722 
326 2 -8.86201 -7.10062 8.57779 -0.523001 
327 2 -8.86201 -8.58275 7.39236 0.598067 
328 2 -8.86201 -7.59221 8.43136 1.55272 
329 2 -8.86201 -7.24876 8.46855 -1.56642 
330 2 -8.86201 -8.24799 9.14144 -0.827468 
331 2 -8.86201 -7.23413 8.11011 0.457055 
332 2 -8.86201 -8.99839 8.63068 1.52915 
333 2 -8.86201 -6.89577 9.65564 -1.50476 
336 2 -8.86201 -8.03674 9.21555 1.17175 
409 2 -8.86201 -6.64529 7.552 -1.57091 
416 2 -8.86201 -6.61149 9.41384 1.45657 
338 2 -8.86201 -5.48656 10.5768 -0.63451 
339 2 -8.86201 -6.27323 10.0849 0.774033 
340 2 -8.86201 -5.61551 10.6071 1.49848 
421 2 -8.86201 -3.0097 9.22308 -1.5561 
422 2 -8.86201 -3.95367 10.372 -1.59939 
423 2 -8.86201 -2.42716 10.7218 0.466146 
424 2 -8.86201 -3.46525 9.90862 1.52299 
426 2 -8.86201 -2.43765 10.6421 -1.11579 
238 1 8.86201 -6.13301 7.01806 -0.533244 
322 2 -8.86201 -5.08703 7.20644 -0.873902 
323 2 -8.86201 -6.06244 6.47128 0.623758 
324 2 -8.86201 -6.24196 7.21449 1.37297 
334 2 -8.86201 -6.19029 9.65831 -0.689892 
335 2 -8.86201 -5.82353 8.87459 0.22127 
405 2 -8.86201 -5.88649 6.55872 -1.47678 
406 2 -8.86201 -3.30798 6.6261 -0.778836 
407 2 -8.86201 -4.70536 6.52865 0.432832 
408 2 -8.86201 -3.69468 6.98412 1.46552 
410 2 -8.86201 -3.98436 8.09862 -1.2619 
411 2 -8.86201 -5.82597 7.73824 0.475845 
412 2 -8.86201 -5.47875 7.92036 1.50785 
413 2 -8.86201 -6.01629 8.55218 -1.52131 
414 2 -8.86201 -5.6629 8.04416 -0.537355 
415 2 -8.86201 -4.2946 8.40066 0.921343 
417 2 -8.86201 -5.40953 9.90875 -1.46931 
418 2 -8.86201 -2.84961 8.40069 -0.202399 
419 2 -8.86201 -4.58296 10.1328 0.28589 
420 2 -8.86201 -5.28793 9.03982 1.48371 
2 1 8.86201 8.8332 10.1718 -1.09924 
4 1 8.86201 7.62239 10.1855 1.42847 
67 1 8.86201 8.29658 6.49796 0.697745 
69 1 8.86201 8.92796 6.79481 -1.51094 
70 1 8.86201 8.59289 7.33868 -0.562771 
71 1 8.86201 10.018 6.89127 0.308813 
72 1 8.86201 10.6418 7.28257 1.49241 
73 1 8.86201 9.18686 8.30948 -1.3792 
74 1 8.86201 10.1176 7.13514 -0.904864 
75 1 8.86201 9.78106 7.96746 0.515558 
76 1 8.86201 8.5698 7.26262 1.55087 
77 1 8.86201 9.73872 9.26955 -1.52202 
78 1 8.86201 8.55506 9.01958 -0.353779 
80 1 8.86201 8.72029 8.8226 1.5791 
82 1 8.86201 10.2943 9.79417 -0.713619 
83 1 8.86201 7.7057 10.4376 0.0941122 
84 1 8.86201 9.77439 9.93009 1.48102 
157 1 8.86201 10.7165 7.86376 -1.42948 
162 1 8.86201 10.1293 8.39036 -0.563189 
164 1 8.86201 10.1603 8.49992 1.42967 
ITEM: TIMESTEP
1100
ITEM: NUMBER OF ATOMS
452
ITEM: BOX BOUNDS pp pp ff
-1.0728100000000000e+01 1.0728100000000000e+01
-1.0728100000000000e+01 1.0728100000000000e+01
-2.1009400000000000e+00 2.1009400000000000e+00
ITEM: ATOMS id type q x y z 
3 1 8.86201 -10.2247 -10.3002 0.71819 
6 1 8.86201 -10.4121 -10.3196 -0.764249 
85 1 8.86201 -8.94596 -10.6921 -1.52141 
87 1 8.86201 -8.67782 -10.2095 0.271813 
89 1 8.86201 -9.7456 -9.54457 -1.55046 
90 1 8.86201 -9.4228 -10.0418 -0.604358 
91 1 8.86201 -9.05465 -9.01538 0.388207 
92 1 8.86201 -9.22383 -9.75938 1.56015 
94 1 8.86201 -8.53303 -8.85351 -0.558443 
95 1 8.86201 -8.55382 -8.05971 0.426861 
96 1 8.86201 -9.78268 -8.6662 1.57842 
97 1 8.86201 -9.94236 -7.21538 -1.55769 
98 1 8.86201 -8.80675 -7.73362 -0.788634 
99 1 8.86201 -9.77699 -7.5234 0.353774 
100 1 8.86201 -9.85594 -7.47346 1.50971 
169 1 8.86201 -7.79804 -10.6233 -1.5043 
173 1 8.86201 -8.6877 -9.68073 -1.19396 
174 1 8.86201 -7.2509 -10.4843 -0.525297 
175 1 8.86201 -8.0593 -9.12611 0.357307 
176 1 8.86201 -7.15178 -9.86572 1.5989 
177 1 8.86201 -9.74944 -8.23072 -1.53678 
178 1 8.86201 -7.44899 -9.09244 -0.622606 
179 1 8.86201 -7.20902 -8.23353 0.650679 
180 1 8.86201 -8.15702 -9.31397 1.58056 
181 1 8.86201 -7.65041 -7.39168 -1.59574 
182 1 8.86201 -7.76951 -8.08118 -0.693035 
183 1 8.86201 -7.69132 -7.38851 0.223615 
184 1 8.86201 -8.899 -8.08352 1.58013 
253 2 -8.86201 -6.74804 -10.4672 -1.51762 
254 2 -8.86201 -6.48785 -10.6045 0.19443 
257 2 -8.86201 -7.64767 -9.58037 -1.55727 
258 2 -8.86201 -6.6036 -9.67004 -0.330536 
259 2 -8.86201 -7.50265 -10.2822 0.642615 
260 2 -8.86201 -6.59094 -9.0193 1.48064 
261 2 -8.86201 -8.75244 -8.50363 -1.52475 
262 2 -8.86201 -6.79284 -8.35301 -0.333473 
263 2 -8.86201 -7.08001 -9.30696 0.647765 
264 2 -8.86201 -7.7478 -8.25805 1.59113 
265 2 -8.86201 -6.49208 -7.30815 -1.55606 
266 2 -8.86201 -7.19353 -7.19033 -0.637941 
267 2 -8.86201 -7.17193 -7.21279 1.05237 
268 2 -8.86201 -8.25096 -7.26494 1.52481 
341 2 -8.86201 -6.56632 -9.46456 -1.54205 
345 2 -8.86201 -7.31164 -8.48968 -1.58476 
352 2 -8.86201 -6.51666 -7.89637 1.53106 
102 1 8.86201 -9.26015 -6.68197 -0.354579 
103 1 8.86201 -8.49747 -6.55692 0.401998 
185 1 8.86201 -9.05014 -6.5815 -1.54643 
186 1 8.86201 -8.1844 -6.9046 -0.613811 
187 1 8.86201 -7.45601 -6.28493 0.639157 
337 2 -8.86201 -5.63737 -10.334 -1.56616 
342 2 -8.86201 -5.5277 -9.78296 -0.554917 
343 2 -8.86201 -6.24817 -10.0338 1.11277 
344 2 -8.86201 -4.58291 -10.1962 1.51657 
346 2 -8.86201 -6.15658 -8.40555 -1.20577 
347 2 -8.86201 -5.92005 -9.18956 0.304169 
348 2 -8.86201 -5.47891 -8.68385 1.39101 
349 2 -8.86201 -5.44912 -7.6171 -1.527 
350 2 -8.86201 -6.16625 -7.27874 -0.480919 
351 2 -8.86201 -6.12862 -8.09484 0.512748 
425 2 -8.86201 -3.27172 -9.67764 -1.5489 
427 2 -8.86201 -1.96276 -9.40893 0.299967 
428 2 -8.86201 -3.29819 -9.67247 1.55394 
429 2 -8.86201 -4.90908 -8.74118 -1.54909 
430 2 -8.86201 -3.81176 -9.10006 -0.304326 
431 2 -8.86201 -2.26919 -8.29147 1.30824 
432 2 -8.86201 -4.16056 -8.47667 1.54272 
433 2 -8.86201 -3.97677 -7.15726 -1.56563 
434 2 -8.86201 -4.02956 -7.66751 -0.0714327 
435 2 -8.86201 -2.48009 -6.86542 1.24597 
436 2 -8.86201 -5.15446 -7.70129 1.55405 
356 2 -8.86201 -6.16591 -6.95009 1.24414 
1 1 8.86201 9.72331 -10.3803 -1.52901 
5 1 8.86201 9.7381 -9.3367 -1.5054 
7 1 8.86201 8.54792 -9.39504 0.832879 
8 1 8.86201 10.1473 -10.543 1.53271 
9 1 8.86201 8.60307 -8.18606 -1.51216 
10 1 8.86201 9.65304 -9.07814 -0.0436495 
11 1 8.86201 9.82232 -7.87276 0.550766 
12 1 8.86201 10.5524 -9.46383 1.5909 
13 1 8.86201 10.3641 -6.98153 -1.53919 
14 1 8.86201 9.78541 -7.9757 -0.82344 
15 1 8.86201 7.39569 -6.76403 1.22257 
16 1 8.86201 10.5456 -8.26144 1.50445 
93 1 8.86201 10.3768 -8.49097 -1.57551 
18 1 8.86201 7.92827 -7.0212 -0.69673 
19 1 8.86201 -10.3976 -6.33528 0.955983 
24 1 8.86201 -10.1935 -5.42788 1.57195 
29 1 8.86201 -10.5981 -3.39458 -1.55761 
35 1 8.86201 -10.1996 -2.27001 0.644139 
104 1 8.86201 -9.32798 -6.3712 1.47064 
105 1 8.86201 -9.71926 -5.6379 -1.44238 
106 1 8.86201 -9.96777 -5.65997 -0.3605 
107 1 8.86201 -9.46586 -5.50569 0.719973 
108 1 8.86201 -8.68254 -5.28908 1.51927 
109 1 8.86201 -9.08329 -4.47335 -1.56844 
110 1 8.86201 -8.43362 -4.71171 -0.606788 
112 1 8.86201 -9.16247 -3.95515 1.29311 
113 1 8.86201 -8.72739 -3.28 -1.55889 
114 1 8.86201 -9.93731 -3.61585 -0.534183 
115 1 8.86201 -8.29888 -3.46996 0.556633 
116 1 8.86201 -9.42587 -2.7872 1.49422 
117 1 8.86201 -9.42271 -2.53723 -1.52666 
118 1 8.86201 -8.62655 -2.59005 -0.609381 
119 1 8.86201 -8.85492 -2.65146 0.464476 
120 1 8.86201 -8.48912 -2.19717 1.47229 
188 1 8.86201 -8.09663 -6.23324 1.49221 
189 1 8.86201 -8.57705 -5.34949 -1.57764 
190 1 8.86201 -8.46158 -5.83046 -0.600154 
191 1 8.86201 -8.09914 -5.5409 0.583954 
192 1 8.86201 -7.48695 -5.36524 1.56224 
193 1 8.86201 -8.02643 -4.18538 -1.54036 
194 1 8.86201 -6.79292 -4.28976 -0.530251 
195 1 8.86201 -8.70971 -4.57804 0.46813 
196 1 8.86201 -7.74064 -4.32765 1.58958 
197 1 8.86201 -7.55843 -3.12608 -1.5463 
198 1 8.86201 -8.87451 -3.66619 -0.504346 
199 1 8.86201 -7.1224 -3.09958 0.381107 
200 1 8.86201 -8.20829 -3.24987 1.54223 
201 1 8.86201 -8.18106 -2.27257 -1.54523 
202 1 8.86201 -7.38772 -2.20132 -0.317494 
269 2 -8.86201 -8.06682 -6.26567 -1.54257 
270 2 -8.86201 -7.51631 -6.22197 -0.38991 
271 2 -8.86201 -6.49922 -6.27872 0.256888 
272 2 -8.86201 -7.04872 -6.36576 1.58056 
273 2 -8.86201 -7.63669 -5.19166 -1.31037 
274 2 -8.86201 -7.57147 -5.2382 -0.30175 
275 2 -8.86201 -6.95904 -5.33901 0.630886 
276 2 -8.86201 -6.65749 -4.79829 1.48226 
277 2 -8.86201 -7.04485 -4.07058 -1.49787 
279 2 -8.86201 -7.65235 -4.53529 0.567833 
280 2 -8.86201 -7.18675 -3.51946 1.35994 
281 2 -8.86201 -6.55259 -3.00011 -1.59563 
282 2 -8.86201 -7.91071 -3.27278 -0.549709 
283 2 -8.86201 -6.80023 -3.12704 -0.661383 
284 2 -8.86201 -7.50715 -2.45153 1.42798 
353 2 -8.86201 -6.99782 -6.1043 -1.50238 
357 2 -8.86201 -6.43632 -4.96719 -1.54845 
363 2 -8.86201 -6.58103 -4.11331 0.543822 
368 2 -8.86201 -6.36541 -2.8083 1.36841 
122 1 8.86201 -10.6438 -2.45791 -0.893989 
278 2 -8.86201 -5.78299 -4.12037 -0.303264 
354 2 -8.86201 -6.17941 -5.93642 -0.801101 
355 2 -8.86201 -5.19719 -6.36663 0.442815 
358 2 -8.86201 -5.47009 -4.96512 -1.02435 
359 2 -8.86201 -5.67371 -4.80033 0.50262 
360 2 -8.86201 -6.03404 -5.70011 1.44966 
361 2 -8.86201 -5.98576 -3.97097 -1.55316 
362 2 -8.86201 -5.1016 -3.38923 0.216683 
364 2 -8.86201 -6.02694 -3.93661 1.50414 
365 2 -8.86201 -4.34258 -2.82578 -1.53882 
366 2 -8.86201 -5.59595 -3.11685 -0.926173 
367 2 -8.86201 -5.75495 -2.25027 0.517592 
372 2 -8.86201 -4.79264 -2.60944 1.51978 
437 2 -8.86201 -3.3544 -5.69204 -1.53137 
438 2 -8.86201 -4.48617 -6.33568 -0.877061 
439 2 -8.86201 -2.45389 -5.31336 0.662172 
440 2 -8.86201 -4.01467 -5.89204 1.49723 
441 2 -8.86201 -4.80007 -4.14906 -1.46682 
442 2 -8.86201 -3.4872 -4.64041 -0.798694 
443 2 -8.86201 -2.50181 -3.82995 1.01683 
444 2 -8.86201 -3.49997 -4.40217 1.45212 
445 2 -8.86201 -2.14102 -2.95458 -1.50342 
447 2 -8.86201 -3.00648 -2.63902 0.177143 
448 2 -8.86201 -4.74645 -3.80079 1.49944 
446 2 -8.86201 -1.76662 -3.47757 -0.472243 
17 1 8.86201 7.94858 -6.23306 -1.55725 
20 1 8.86201 9.16339 -6.3701 1.45351 
21 1 8.86201 9.51058 -5.16013 -1.55922 
22 1 8.86201 7.9472 -5.59405 -0.274881 
23 1 8.86201 9.50865 -5.48754 0.356172 
25 1 8.86201 8.04081 -3.3712 -1.5522 
26 1 8.86201 10.6715 -4.35539 -1.15739 
27 1 8.86201 7.83903 -4.02317 0.321282 
28 1 8.86201 9.41722 -4.55594 1.56162 
30 1 8.86201 9.98803 -3.19377 -0.623146 
31 1 8.86201 8.16937 -2.49552 0.564183 
32 1 8.86201 8.75869 -3.32009 1.5651 
36 1 8.86201 10.2465 -2.51724 1.57437 
101 1 8.86201 10.5305 -5.83061 -1.52567 
111 1 8.86201 10.3091 -3.99024 0.943656 
203 1 8.86201 -6.70641 -2.07789 0.544942 
204 1 8.86201 -6.58931 -1.55092 1.52792 
285 2 -8.86201 -7.15194 -2.08803 -1.42443 
286 2 -8.86201 -6.43714 -1.9878 -0.545616 
40 1 8.86201 -10.6103 -1.1461 1.58729 
46 1 8.86201 -10.6016 0.504309 -1.58444 
121 1 8.86201 -10.1068 -0.875529 -1.54579 
123 1 8.86201 -9.07241 -0.808787 0.225098 
124 1 8.86201 -9.19551 -1.44773 1.33122 
125 1 8.86201 -9.31403 -0.136992 -1.49947 
126 1 8.86201 -9.33937 0.468338 -0.259042 
127 1 8.86201 -10.4978 -0.785078 0.552664 
128 1 8.86201 -10.4064 -0.0763063 1.44984 
129 1 8.86201 -9.46088 1.73412 -1.50583 
130 1 8.86201 -7.72389 0.124969 -0.576428 
131 1 8.86201 -9.35995 0.470467 1.20025 
132 1 8.86201 -8.01632 1.41626 1.54565 
133 1 8.86201 -8.20211 1.99556 -1.49167 
134 1 8.86201 -8.87252 1.45359 -0.602187 
205 1 8.86201 -7.83103 -1.26194 -1.53488 
206 1 8.86201 -9.07638 -1.49666 -1.55677 
207 1 8.86201 -7.96738 -1.41731 0.799231 
208 1 8.86201 -7.61342 -0.735919 1.54404 
209 1 8.86201 -7.45442 -0.211571 -1.53454 
210 1 8.86201 -8.5249 -0.43701 -0.886632 
211 1 8.86201 -7.98985 -0.307691 0.39675 
212 1 8.86201 -8.49395 -0.159167 1.50138 
213 1 8.86201 -8.50637 0.848627 -1.40997 
214 1 8.86201 -6.53098 0.127726 -0.59126 
215 1 8.86201 -8.63769 0.472045 0.427423 
216 1 8.86201 -6.45957 1.00149 1.58502 
217 1 8.86201 -7.13285 1.98106 -1.55573 
218 1 8.86201 -7.6974 1.54465 -0.712392 
219 1 8.86201 -9.29197 1.67889 0.718922 
220 1 8.86201 -7.15598 1.79977 1.14811 
289 2 -8.86201 -6.80061 -1.11753 -1.55264 
290 2 -8.86201 -8.74864 -1.56989 -0.465669 
291 2 -8.86201 -7.1662 -1.08132 0.335838 
292 2 -8.86201 -6.56984 -0.436588 1.45477 
294 2 -8.86201 -7.7402 -1.0681 -0.481815 
295 2 -8.86201 -7.01857 -0.0790428 0.624978 
296 2 -8.86201 -7.66082 0.416434 1.56338 
297 2 -8.86201 -7.49265 1.00166 -1.56527 
299 2 -8.86201 -7.64696 0.955613 0.676713 
302 2 -8.86201 -7.11167 0.899346 -0.177768 
303 2 -8.86201 -8.3478 1.56591 0.243433 
381 2 -8.86201 -6.4145 1.18188 -1.37456 
306 2 -8.86201 -6.77738 1.9119 -0.519336 
287 2 -8.86201 -6.09194 -1.06171 0.659962 
288 2 -8.86201 -5.63932 -1.97664 1.51476 
369 2 -8.86201 -5.98612 -1.86115 -1.53486 
370 2 -8.86201 -4.59669 -1.05842 -1.13032 
371 2 -8.86201 -4.51543 -1.37846 0.491279 
449 2 -8.86201 -2.64714 -0.93563 -1.4991 
450 2 -8.86201 -2.58352 -1.80651 -0.579526 
451 2 -8.86201 -2.38878 -0.256964 0.896813 
452 2 -8.86201 -2.83521 -1.98943 1.43835 
293 2 -8.86201 -6.20665 0.244968 -1.52271 
298 2 -8.86201 -5.9566 0.726111 0.0540999 
300 2 -8.86201 -5.38029 1.01713 1.55752 
373 2 -8.86201 -5.62125 -0.832906 -1.52373 
374 2 -8.86201 -6.13558 -0.894336 -0.434187 
375 2 -8.86201 -5.48978 -0.166724 0.392108 
376 2 -8.86201 -4.96388 -0.977964 1.45583 
377 2 -8.86201 -3.68384 0.312909 -1.47398 
378 2 -8.86201 -4.99496 0.641759 -0.941885 
379 2 -8.86201 -3.95521 0.16201 0.5069 
380 2 -8.86201 -5.53054 -0.0339591 1.52452 
382 2 -8.86201 -3.39653 1.06757 -0.522905 
383 2 -8.86201 -5.142 1.50212 0.616739 
384 2 -8.86201 -4.13981 0.610241 1.5746 
385 2 -8.86201 -4.44985 1.93309 -1.53405 
386 2 -8.86201 -5.40522 1.75319 -0.471838 
387 2 -8.86201 -6.47489 1.36387 0.630877 
388 2 -8.86201 -4.81111 2.04812 1.58391 
33 1 8.86201 9.94662 -1.4943 -1.52887 
34 1 8.86201 7.81261 -2.08729 -0.98979 
37 1 8.86201 8.20118 -1.16725 -1.55344 