ITEM: TIMESTEP
0
ITEM: NUMBER OF ATOMS
2500
ITEM: BOX BOUNDS
-10.7281	10.7281
-10.7281	10.7281
-2.10084	2.10084
ITEM: ATOMS index type x y z
1  1  -10.2281  -10.2281  2.60084
2  1  -9.799  -10.2281  2.60084
3  1  -9.36987  -10.2281  2.60084
4  1  -8.94075  -10.2281  2.60084
5  1  -8.51162  -10.2281  2.60084
6  1  -8.0825  -10.2281  2.60084
7  1  -7.65337  -10.2281  2.60084
8  1  -7.22425  -10.2281  2.60084
9  1  -6.79512  -10.2281  2.60084
10  1  -6.366  -10.2281  2.60084
11  1  -5.93687  -10.2281  2.60084
12  1  -5.50775  -10.2281  2.60084
13  1  -5.07862  -10.2281  2.60084
14  1  -4.6495  -10.2281  2.60084
15  1  -4.22037  -10.2281  2.60084
16  1  -3.79125  -10.2281  2.60084
17  1  -3.36212  -10.2281  2.60084
18  1  -2.933  -10.2281  2.60084
19  1  -2.50387  -10.2281  2.60084
20  1  -2.07475  -10.2281  2.60084
21  1  -1.64562  -10.2281  2.60084
22  1  -1.2165  -10.2281  2.60084
23  1  -0.787375  -10.2281  2.60084
24  1  -0.35825  -10.2281  2.60084
25  1  0.0708751  -10.2281  2.60084
26  1  0.5  -10.2281  2.60084
27  1  0.929125  -10.2281  2.60084
28  1  1.35825  -10.2281  2.60084
29  1  1.78737  -10.2281  2.60084
30  1  2.2165  -10.2281  2.60084
31  1  2.64562  -10.2281  2.60084
32  1  3.07475  -10.2281  2.60084
33  1  3.50387  -10.2281  2.60084
34  1  3.933  -10.2281  2.60084
35  1  4.36212  -10.2281  2.60084
36  1  4.79125  -10.2281  2.60084
37  1  5.22037  -10.2281  2.60084
38  1  5.6495  -10.2281  2.60084
39  1  6.07862  -10.2281  2.60084
40  1  6.50775  -10.2281  2.60084
41  1  6.93687  -10.2281  2.60084
42  1  7.366  -10.2281  2.60084
43  1  7.79512  -10.2281  2.60084
44  1  8.22425  -10.2281  2.60084
45  1  8.65337  -10.2281  2.60084
46  1  9.0825  -10.2281  2.60084
47  1  9.51162  -10.2281  2.60084
48  1  9.94075  -10.2281  2.60084
49  1  10.3699  -10.2281  2.60084
50  1  10.799  -10.2281  2.60084
51  1  -10.2281  -9.799  2.60084
52  1  -9.799  -9.799  2.60084
53  1  -9.36987  -9.799  2.60084
54  1  -8.94075  -9.799  2.60084
55  1  -8.51162  -9.799  2.60084
56  1  -8.0825  -9.799  2.60084
57  1  -7.65337  -9.799  2.60084
58  1  -7.22425  -9.799  2.60084
59  1  -6.79512  -9.799  2.60084
60  1  -6.366  -9.799  2.60084
61  1  -5.93687  -9.799  2.60084
62  1  -5.50775  -9.799  2.60084
63  1  -5.07862  -9.799  2.60084
64  1  -4.6495  -9.799  2.60084
65  1  -4.22037  -9.799  2.60084
66  1  -3.79125  -9.799  2.60084
67  1  -3.36212  -9.799  2.60084
68  1  -2.933  -9.799  2.60084
69  1  -2.50387  -9.799  2.60084
70  1  -2.07475  -9.799  2.60084
71  1  -1.64562  -9.799  2.60084
72  1  -1.2165  -9.799  2.60084
73  1  -0.787375  -9.799  2.60084
74  1  -0.35825  -9.799  2.60084
75  1  0.0708751  -9.799  2.60084
76  1  0.5  -9.799  2.60084
77  1  0.929125  -9.799  2.60084
78  1  1.35825  -9.799  2.60084
79  1  1.78737  -9.799  2.60084
80  1  2.2165  -9.799  2.60084
81  1  2.64562  -9.799  2.60084
82  1  3.07475  -9.799  2.60084
83  1  3.50387  -9.799  2.60084
84  1  3.933  -9.799  2.60084
85  1  4.36212  -9.799  2.60084
86  1  4.79125  -9.799  2.60084
87  1  5.22037  -9.799  2.60084
88  1  5.6495  -9.799  2.60084
89  1  6.07862  -9.799  2.60084
90  1  6.50775  -9.799  2.60084
91  1  6.93687  -9.799  2.60084
92  1  7.366  -9.799  2.60084
93  1  7.79512  -9.799  2.60084
94  1  8.22425  -9.799  2.60084
95  1  8.65337  -9.799  2.60084
96  1  9.0825  -9.799  2.60084
97  1  9.51162  -9.799  2.60084
98  1  9.94075  -9.799  2.60084
99  1  10.3699  -9.799  2.60084
100  1  10.799  -9.799  2.60084
101  1  -10.2281  -9.36987  2.60084
102  1  -9.799  -9.36987  2.60084
103  1  -9.36987  -9.36987  2.60084
104  1  -8.94075  -9.36987  2.60084
105  1  -8.51162  -9.36987  2.60084
106  1  -8.0825  -9.36987  2.60084
107  1  -7.65337  -9.36987  2.60084
108  1  -7.22425  -9.36987  2.60084
109  1  -6.79512  -9.36987  2.60084
110  1  -6.366  -9.36987  2.60084
111  1  -5.93687  -9.36987  2.60084
112  1  -5.50775  -9.36987  2.60084
113  1  -5.07862  -9.36987  2.60084
114  1  -4.6495  -9.36987  2.60084
115  1  -4.22037  -9.36987  2.60084
116  1  -3.79125  -9.36987  2.60084
117  1  -3.36212  -9.36987  2.60084
118  1  -2.933  -9.36987  2.60084
119  1  -2.50387  -9.36987  2.60084
120  1  -2.07475  -9.36987  2.60084
121  1  -1.64562  -9.36987  2.60084
122  1  -1.2165  -9.36987  2.60084
123  1  -0.787375  -9.36987  2.60084
124  1  -0.35825  -9.36987  2.60084
125  1  0.0708751  -9.36987  2.60084
126  1  0.5  -9.36987  2.60084
127  1  0.929125  -9.36987  2.60084
128  1  1.35825  -9.36987  2.60084
129  1  1.78737  -9.36987  2.60084
130  1  2.2165  -9.36987  2.60084
131  1  2.64562  -9.36987  2.60084
132  1  3.07475  -9.36987  2.60084
133  1  3.50387  -9.36987  2.60084
134  1  3.933  -9.36987  2.60084
135  1  4.36212  -9.36987  2.60084
136  1  4.79125  -9.36987  2.60084
137  1  5.22037  -9.36987  2.60084
138  1  5.6495  -9.36987  2.60084
139  1  6.07862  -9.36987  2.60084
140  1  6.50775  -9.36987  2.60084
141  1  6.93687  -9.36987  2.60084
142  1  7.366  -9.36987  2.60084
143  1  7.79512  -9.36987  2.60084
144  1  8.22425  -9.36987  2.60084
145  1  8.65337  -9.36987  2.60084
146  1  9.0825  -9.36987  2.60084
147  1  9.51162  -9.36987  2.60084
148  1  9.94075  -9.36987  2.60084
149  1  10.3699  -9.36987  2.60084
150  1  10.799  -9.36987  2.60084
151  1  -10.2281  -8.94075  2.60084
152  1  -9.799  -8.94075  2.60084
153  1  -9.36987  -8.94075  2.60084
154  1  -8.94075  -8.94075  2.60084
155  1  -8.51162  -8.94075  2.60084
156  1  -8.0825  -8.94075  2.60084
157  1  -7.65337  -8.94075  2.60084
158  1  -7.22425  -8.94075  2.60084
159  1  -6.79512  -8.94075  2.60084
160  1  -6.366  -8.94075  2.60084
161  1  -5.93687  -8.94075  2.60084
162  1  -5.50775  -8.94075  2.60084
163  1  -5.07862  -8.94075  2.60084
164  1  -4.6495  -8.94075  2.60084
165  1  -4.22037  -8.94075  2.60084
166  1  -3.79125  -8.94075  2.60084
167  1  -3.36212  -8.94075  2.60084
168  1  -2.933  -8.94075  2.60084
169  1  -2.50387  -8.94075  2.60084
170  1  -2.07475  -8.94075  2.60084
171  1  -1.64562  -8.94075  2.60084
172  1  -1.2165  -8.94075  2.60084
173  1  -0.787375  -8.94075  2.60084
174  1  -0.35825  -8.94075  2.60084
175  1  0.0708751  -8.94075  2.60084
176  1  0.5  -8.94075  2.60084
177  1  0.929125  -8.94075  2.60084
178  1  1.35825  -8.94075  2.60084
179  1  1.78737  -8.94075  2.60084
180  1  2.2165  -8.94075  2.60084
181  1  2.64562  -8.94075  2.60084
182  1  3.07475  -8.94075  2.60084
183  1  3.50387  -8.94075  2.60084
184  1  3.933  -8.94075  2.60084
185  1  4.36212  -8.94075  2.60084
186  1  4.79125  -8.94075  2.60084
187  1  5.22037  -8.94075  2.60084
188  1  5.6495  -8.94075  2.60084
189  1  6.07862  -8.94075  2.60084
190  1  6.50775  -8.94075  2.60084
191  1  6.93687  -8.94075  2.60084
192  1  7.366  -8.94075  2.60084
193  1  7.79512  -8.94075  2.60084
194  1  8.22425  -8.94075  2.60084
195  1  8.65337  -8.94075  2.60084
196  1  9.0825  -8.94075  2.60084
197  1  9.51162  -8.94075  2.60084
198  1  9.94075  -8.94075  2.60084
199  1  10.3699  -8.94075  2.60084
200  1  10.799  -8.94075  2.60084
201  1  -10.2281  -8.51162  2.60084
202  1  -9.799  -8.51162  2.60084
203  1  -9.36987  -8.51162  2.60084
204  1  -8.94075  -8.51162  2.60084
205  1  -8.51162  -8.51162  2.60084
206  1  -8.0825  -8.51162  2.60084
207  1  -7.65337  -8.51162  2.60084
208  1  -7.22425  -8.51162  2.60084
209  1  -6.79512  -8.51162  2.60084
210  1  -6.366  -8.51162  2.60084
211  1  -5.93687  -8.51162  2.60084
212  1  -5.50775  -8.51162  2.60084
213  1  -5.07862  -8.51162  2.60084
214  1  -4.6495  -8.51162  2.60084
215  1  -4.22037  -8.51162  2.60084
216  1  -3.79125  -8.51162  2.60084
217  1  -3.36212  -8.51162  2.60084
218  1  -2.933  -8.51162  2.60084
219  1  -2.50387  -8.51162  2.60084
220  1  -2.07475  -8.51162  2.60084
221  1  -1.64562  -8.51162  2.60084
222  1  -1.2165  -8.51162  2.60084
223  1  -0.787375  -8.51162  2.60084
224  1  -0.35825  -8.51162  2.60084
225  1  0.0708751  -8.51162  2.60084
226  1  0.5  -8.51162  2.60084
227  1  0.929125  -8.51162  2.60084
228  1  1.35825  -8.51162  2.60084
229  1  1.78737  -8.51162  2.60084
230  1  2.2165  -8.51162  2.60084
231  1  2.64562  -8.51162  2.60084
232  1  3.07475  -8.51162  2.60084
233  1  3.50387  -8.51162  2.60084
234  1  3.933  -8.51162  2.60084
235  1  4.36212  -8.51162  2.60084
236  1  4.79125  -8.51162  2.60084
237  1  5.22037  -8.51162  2.60084
238  1  5.6495  -8.51162  2.60084
239  1  6.07862  -8.51162  2.60084
240  1  6.50775  -8.51162  2.60084
241  1  6.93687  -8.51162  2.60084
242  1  7.366  -8.51162  2.60084
243  1  7.79512  -8.51162  2.60084
244  1  8.22425  -8.51162  2.60084
245  1  8.65337  -8.51162  2.60084
246  1  9.0825  -8.51162  2.60084
247  1  9.51162  -8.51162  2.60084
248  1  9.94075  -8.51162  2.60084
249  1  10.3699  -8.51162  2.60084
250  1  10.799  -8.51162  2.60084
251  1  -10.2281  -8.0825  2.60084
252  1  -9.799  -8.0825  2.60084
253  1  -9.36987  -8.0825  2.60084
254  1  -8.94075  -8.0825  2.60084
255  1  -8.51162  -8.0825  2.60084
256  1  -8.0825  -8.0825  2.60084
257  1  -7.65337  -8.0825  2.60084
258  1  -7.22425  -8.0825  2.60084
259  1  -6.79512  -8.0825  2.60084
260  1  -6.366  -8.0825  2.60084
261  1  -5.93687  -8.0825  2.60084
262  1  -5.50775  -8.0825  2.60084
263  1  -5.07862  -8.0825  2.60084
264  1  -4.6495  -8.0825  2.60084
265  1  -4.22037  -8.0825  2.60084
266  1  -3.79125  -8.0825  2.60084
267  1  -3.36212  -8.0825  2.60084
268  1  -2.933  -8.0825  2.60084
269  1  -2.50387  -8.0825  2.60084
270  1  -2.07475  -8.0825  2.60084
271  1  -1.64562  -8.0825  2.60084
272  1  -1.2165  -8.0825  2.60084
273  1  -0.787375  -8.0825  2.60084
274  1  -0.35825  -8.0825  2.60084
275  1  0.0708751  -8.0825  2.60084
276  1  0.5  -8.0825  2.60084
277  1  0.929125  -8.0825  2.60084
278  1  1.35825  -8.0825  2.60084
279  1  1.78737  -8.0825  2.60084
280  1  2.2165  -8.0825  2.60084
281  1  2.64562  -8.0825  2.60084
282  1  3.07475  -8.0825  2.60084
283  1  3.50387  -8.0825  2.60084
284  1  3.933  -8.0825  2.60084
285  1  4.36212  -8.0825  2.60084
286  1  4.79125  -8.0825  2.60084
287  1  5.22037  -8.0825  2.60084
288  1  5.6495  -8.0825  2.60084
289  1  6.07862  -8.0825  2.60084
290  1  6.50775  -8.0825  2.60084
291  1  6.93687  -8.0825  2.60084
292  1  7.366  -8.0825  2.60084
293  1  7.79512  -8.0825  2.60084
294  1  8.22425  -8.0825  2.60084
295  1  8.65337  -8.0825  2.60084
296  1  9.0825  -8.0825  2.60084
297  1  9.51162  -8.0825  2.60084
298  1  9.94075  -8.0825  2.60084
299  1  10.3699  -8.0825  2.60084
300  1  10.799  -8.0825  2.60084
301  1  -10.2281  -7.65337  2.60084
302  1  -9.799  -7.65337  2.60084
303  1  -9.36987  -7.65337  2.60084
304  1  -8.94075  -7.65337  2.60084
305  1  -8.51162  -7.65337  2.60084
306  1  -8.0825  -7.65337  2.60084
307  1  -7.65337  -7.65337  2.60084
308  1  -7.22425  -7.65337  2.60084
309  1  -6.79512  -7.65337  2.60084
310  1  -6.366  -7.65337  2.60084
311  1  -5.93687  -7.65337  2.60084
312  1  -5.50775  -7.65337  2.60084
313  1  -5.07862  -7.65337  2.60084
314  1  -4.6495  -7.65337  2.60084
315  1  -4.22037  -7.65337  2.60084
316  1  -3.79125  -7.65337  2.60084
317  1  -3.36212  -7.65337  2.60084
318  1  -2.933  -7.65337  2.60084
319  1  -2.50387  -7.65337  2.60084
320  1  -2.07475  -7.65337  2.60084
321  1  -1.64562  -7.65337  2.60084
322  1  -1.2165  -7.65337  2.60084
323  1  -0.787375  -7.65337  2.60084
324  1  -0.35825  -7.65337  2.60084
325  1  0.0708751  -7.65337  2.60084
326  1  0.5  -7.65337  2.60084
327  1  0.929125  -7.65337  2.60084
328  1  1.35825  -7.65337  2.60084
329  1  1.78737  -7.65337  2.60084
330  1  2.2165  -7.65337  2.60084
331  1  2.64562  -7.65337  2.60084
332  1  3.07475  -7.65337  2.60084
333  1  3.50387  -7.65337  2.60084
334  1  3.933  -7.65337  2.60084
335  1  4.36212  -7.65337  2.60084
336  1  4.79125  -7.65337  2.60084
337  1  5.22037  -7.65337  2.60084
338  1  5.6495  -7.65337  2.60084
339  1  6.07862  -7.65337  2.60084
340  1  6.50775  -7.65337  2.60084
341  1  6.93687  -7.65337  2.60084
342  1  7.366  -7.65337  2.60084
343  1  7.79512  -7.65337  2.60084
344  1  8.22425  -7.65337  2.60084
345  1  8.65337  -7.65337  2.60084
346  1  9.0825  -7.65337  2.60084
347  1  9.51162  -7.65337  2.60084
348  1  9.94075  -7.65337  2.60084
349  1  10.3699  -7.65337  2.60084
350  1  10.799  -7.65337  2.60084
351  1  -10.2281  -7.22425  2.60084
352  1  -9.799  -7.22425  2.60084
353  1  -9.36987  -7.22425  2.60084
354  1  -8.94075  -7.22425  2.60084
355  1  -8.51162  -7.22425  2.60084
356  1  -8.0825  -7.22425  2.60084
357  1  -7.65337  -7.22425  2.60084
358  1  -7.22425  -7.22425  2.60084
359  1  -6.79512  -7.22425  2.60084
360  1  -6.366  -7.22425  2.60084
361  1  -5.93687  -7.22425  2.60084
362  1  -5.50775  -7.22425  2.60084
363  1  -5.07862  -7.22425  2.60084
364  1  -4.6495  -7.22425  2.60084
365  1  -4.22037  -7.22425  2.60084
366  1  -3.79125  -7.22425  2.60084
367  1  -3.36212  -7.22425  2.60084
368  1  -2.933  -7.22425  2.60084
369  1  -2.50387  -7.22425  2.60084
370  1  -2.07475  -7.22425  2.60084
371  1  -1.64562  -7.22425  2.60084
372  1  -1.2165  -7.22425  2.60084
373  1  -0.787375  -7.22425  2.60084
374  1  -0.35825  -7.22425  2.60084
375  1  0.0708751  -7.22425  2.60084
376  1  0.5  -7.22425  2.60084
377  1  0.929125  -7.22425  2.60084
378  1  1.35825  -7.22425  2.60084
379  1  1.78737  -7.22425  2.60084
380  1  2.2165  -7.22425  2.60084
381  1  2.64562  -7.22425  2.60084
382  1  3.07475  -7.22425  2.60084
383  1  3.50387  -7.22425  2.60084
384  1  3.933  -7.22425  2.60084
385  1  4.36212  -7.22425  2.60084
386  1  4.79125  -7.22425  2.60084
387  1  5.22037  -7.22425  2.60084
388  1  5.6495  -7.22425  2.60084
389  1  6.07862  -7.22425  2.60084
390  1  6.50775  -7.22425  2.60084
391  1  6.93687  -7.22425  2.60084
392  1  7.366  -7.22425  2.60084
393  1  7.79512  -7.22425  2.60084
394  1  8.22425  -7.22425  2.60084
395  1  8.65337  -7.22425  2.60084
396  1  9.0825  -7.22425  2.60084
397  1  9.51162  -7.22425  2.60084
398  1  9.94075  -7.22425  2.60084
399  1  10.3699  -7.22425  2.60084
400  1  10.799  -7.22425  2.60084
401  1  -10.2281  -6.79512  2.60084
402  1  -9.799  -6.79512  2.60084
403  1  -9.36987  -6.79512  2.60084
404  1  -8.94075  -6.79512  2.60084
405  1  -8.51162  -6.79512  2.60084
406  1  -8.0825  -6.79512  2.60084
407  1  -7.65337  -6.79512  2.60084
408  1  -7.22425  -6.79512  2.60084
409  1  -6.79512  -6.79512  2.60084
410  1  -6.366  -6.79512  2.60084
411  1  -5.93687  -6.79512  2.60084
412  1  -5.50775  -6.79512  2.60084
413  1  -5.07862  -6.79512  2.60084
414  1  -4.6495  -6.79512  2.60084
415  1  -4.22037  -6.79512  2.60084
416  1  -3.79125  -6.79512  2.60084
417  1  -3.36212  -6.79512  2.60084
418  1  -2.933  -6.79512  2.60084
419  1  -2.50387  -6.79512  2.60084
420  1  -2.07475  -6.79512  2.60084
421  1  -1.64562  -6.79512  2.60084
422  1  -1.2165  -6.79512  2.60084
423  1  -0.787375  -6.79512  2.60084
424  1  -0.35825  -6.79512  2.60084
425  1  0.0708751  -6.79512  2.60084
426  1  0.5  -6.79512  2.60084
427  1  0.929125  -6.79512  2.60084
428  1  1.35825  -6.79512  2.60084
429  1  1.78737  -6.79512  2.60084
430  1  2.2165  -6.79512  2.60084
431  1  2.64562  -6.79512  2.60084
432  1  3.07475  -6.79512  2.60084
433  1  3.50387  -6.79512  2.60084
434  1  3.933  -6.79512  2.60084
435  1  4.36212  -6.79512  2.60084
436  1  4.79125  -6.79512  2.60084
437  1  5.22037  -6.79512  2.60084
438  1  5.6495  -6.79512  2.60084
439  1  6.07862  -6.79512  2.60084
440  1  6.50775  -6.79512  2.60084
441  1  6.93687  -6.79512  2.60084
442  1  7.366  -6.79512  2.60084
443  1  7.79512  -6.79512  2.60084
444  1  8.22425  -6.79512  2.60084
445  1  8.65337  -6.79512  2.60084
446  1  9.0825  -6.79512  2.60084
447  1  9.51162  -6.79512  2.60084
448  1  9.94075  -6.79512  2.60084
449  1  10.3699  -6.79512  2.60084
450  1  10.799  -6.79512  2.60084
451  1  -10.2281  -6.366  2.60084
452  1  -9.799  -6.366  2.60084
453  1  -9.36987  -6.366  2.60084
454  1  -8.94075  -6.366  2.60084
455  1  -8.51162  -6.366  2.60084
456  1  -8.0825  -6.366  2.60084
457  1  -7.65337  -6.366  2.60084
458  1  -7.22425  -6.366  2.60084
459  1  -6.79512  -6.366  2.60084
460  1  -6.366  -6.366  2.60084
461  1  -5.93687  -6.366  2.60084
462  1  -5.50775  -6.366  2.60084
463  1  -5.07862  -6.366  2.60084
464  1  -4.6495  -6.366  2.60084
465  1  -4.22037  -6.366  2.60084
466  1  -3.79125  -6.366  2.60084
467  1  -3.36212  -6.366  2.60084
468  1  -2.933  -6.366  2.60084
469  1  -2.50387  -6.366  2.60084
470  1  -2.07475  -6.366  2.60084
471  1  -1.64562  -6.366  2.60084
472  1  -1.2165  -6.366  2.60084
473  1  -0.787375  -6.366  2.60084
474  1  -0.35825  -6.366  2.60084
475  1  0.0708751  -6.366  2.60084
476  1  0.5  -6.366  2.60084
477  1  0.929125  -6.366  2.60084
478  1  1.35825  -6.366  2.60084
479  1  1.78737  -6.366  2.60084
480  1  2.2165  -6.366  2.60084
481  1  2.64562  -6.366  2.60084
482  1  3.07475  -6.366  2.60084
483  1  3.50387  -6.366  2.60084
484  1  3.933  -6.366  2.60084
485  1  4.36212  -6.366  2.60084
486  1  4.79125  -6.366  2.60084
487  1  5.22037  -6.366  2.60084
488  1  5.6495  -6.366  2.60084
489  1  6.07862  -6.366  2.60084
490  1  6.50775  -6.366  2.60084
491  1  6.93687  -6.366  2.60084
492  1  7.366  -6.366  2.60084
493  1  7.79512  -6.366  2.60084
494  1  8.22425  -6.366  2.60084
495  1  8.65337  -6.366  2.60084
496  1  9.0825  -6.366  2.60084
497  1  9.51162  -6.366  2.60084
498  1  9.94075  -6.366  2.60084
499  1  10.3699  -6.366  2.60084
500  1  10.799  -6.366  2.60084
501  1  -10.2281  -5.93687  2.60084
502  1  -9.799  -5.93687  2.60084
503  1  -9.36987  -5.93687  2.60084
504  1  -8.94075  -5.93687  2.60084
505  1  -8.51162  -5.93687  2.60084
506  1  -8.0825  -5.93687  2.60084
507  1  -7.65337  -5.93687  2.60084
508  1  -7.22425  -5.93687  2.60084
509  1  -6.79512  -5.93687  2.60084
510  1  -6.366  -5.93687  2.60084
511  1  -5.93687  -5.93687  2.60084
512  1  -5.50775  -5.93687  2.60084
513  1  -5.07862  -5.93687  2.60084
514  1  -4.6495  -5.93687  2.60084
515  1  -4.22037  -5.93687  2.60084
516  1  -3.79125  -5.93687  2.60084
517  1  -3.36212  -5.93687  2.60084
518  1  -2.933  -5.93687  2.60084
519  1  -2.50387  -5.93687  2.60084
520  1  -2.07475  -5.93687  2.60084
521  1  -1.64562  -5.93687  2.60084
522  1  -1.2165  -5.93687  2.60084
523  1  -0.787375  -5.93687  2.60084
524  1  -0.35825  -5.93687  2.60084
525  1  0.0708751  -5.93687  2.60084
526  1  0.5  -5.93687  2.60084
527  1  0.929125  -5.93687  2.60084
528  1  1.35825  -5.93687  2.60084
529  1  1.78737  -5.93687  2.60084
530  1  2.2165  -5.93687  2.60084
531  1  2.64562  -5.93687  2.60084
532  1  3.07475  -5.93687  2.60084
533  1  3.50387  -5.93687  2.60084
534  1  3.933  -5.93687  2.60084
535  1  4.36212  -5.93687  2.60084
536  1  4.79125  -5.93687  2.60084
537  1  5.22037  -5.93687  2.60084
538  1  5.6495  -5.93687  2.60084
539  1  6.07862  -5.93687  2.60084
540  1  6.50775  -5.93687  2.60084
541  1  6.93687  -5.93687  2.60084
542  1  7.366  -5.93687  2.60084
543  1  7.79512  -5.93687  2.60084
544  1  8.22425  -5.93687  2.60084
545  1  8.65337  -5.93687  2.60084
546  1  9.0825  -5.93687  2.60084
547  1  9.51162  -5.93687  2.60084
548  1  9.94075  -5.93687  2.60084
549  1  10.3699  -5.93687  2.60084
550  1  10.799  -5.93687  2.60084
551  1  -10.2281  -5.50775  2.60084
552  1  -9.799  -5.50775  2.60084
553  1  -9.36987  -5.50775  2.60084
554  1  -8.94075  -5.50775  2.60084
555  1  -8.51162  -5.50775  2.60084
556  1  -8.0825  -5.50775  2.60084
557  1  -7.65337  -5.50775  2.60084
558  1  -7.22425  -5.50775  2.60084
559  1  -6.79512  -5.50775  2.60084
560  1  -6.366  -5.50775  2.60084
561  1  -5.93687  -5.50775  2.60084
562  1  -5.50775  -5.50775  2.60084
563  1  -5.07862  -5.50775  2.60084
564  1  -4.6495  -5.50775  2.60084
565  1  -4.22037  -5.50775  2.60084
566  1  -3.79125  -5.50775  2.60084
567  1  -3.36212  -5.50775  2.60084
568  1  -2.933  -5.50775  2.60084
569  1  -2.50387  -5.50775  2.60084
570  1  -2.07475  -5.50775  2.60084
571  1  -1.64562  -5.50775  2.60084
572  1  -1.2165  -5.50775  2.60084
573  1  -0.787375  -5.50775  2.60084
574  1  -0.35825  -5.50775  2.60084
575  1  0.0708751  -5.50775  2.60084
576  1  0.5  -5.50775  2.60084
577  1  0.929125  -5.50775  2.60084
578  1  1.35825  -5.50775  2.60084
579  1  1.78737  -5.50775  2.60084
580  1  2.2165  -5.50775  2.60084
581  1  2.64562  -5.50775  2.60084
582  1  3.07475  -5.50775  2.60084
583  1  3.50387  -5.50775  2.60084
584  1  3.933  -5.50775  2.60084
585  1  4.36212  -5.50775  2.60084
586  1  4.79125  -5.50775  2.60084
587  1  5.22037  -5.50775  2.60084
588  1  5.6495  -5.50775  2.60084
589  1  6.07862  -5.50775  2.60084
590  1  6.50775  -5.50775  2.60084
591  1  6.93687  -5.50775  2.60084
592  1  7.366  -5.50775  2.60084
593  1  7.79512  -5.50775  2.60084
594  1  8.22425  -5.50775  2.60084
595  1  8.65337  -5.50775  2.60084
596  1  9.0825  -5.50775  2.60084
597  1  9.51162  -5.50775  2.60084
598  1  9.94075  -5.50775  2.60084
599  1  10.3699  -5.50775  2.60084
600  1  10.799  -5.50775  2.60084
601  1  -10.2281  -5.07862  2.60084
602  1  -9.799  -5.07862  2.60084
603  1  -9.36987  -5.07862  2.60084
604  1  -8.94075  -5.07862  2.60084
605  1  -8.51162  -5.07862  2.60084
606  1  -8.0825  -5.07862  2.60084
607  1  -7.65337  -5.07862  2.60084
608  1  -7.22425  -5.07862  2.60084
609  1  -6.79512  -5.07862  2.60084
610  1  -6.366  -5.07862  2.60084
611  1  -5.93687  -5.07862  2.60084
612  1  -5.50775  -5.07862  2.60084
613  1  -5.07862  -5.07862  2.60084
614  1  -4.6495  -5.07862  2.60084
615  1  -4.22037  -5.07862  2.60084
616  1  -3.79125  -5.07862  2.60084
617  1  -3.36212  -5.07862  2.60084
618  1  -2.933  -5.07862  2.60084
619  1  -2.50387  -5.07862  2.60084
620  1  -2.07475  -5.07862  2.60084
621  1  -1.64562  -5.07862  2.60084
622  1  -1.2165  -5.07862  2.60084
623  1  -0.787375  -5.07862  2.60084
624  1  -0.35825  -5.07862  2.60084
625  1  0.0708751  -5.07862  2.60084
626  1  0.5  -5.07862  2.60084
627  1  0.929125  -5.07862  2.60084
628  1  1.35825  -5.07862  2.60084
629  1  1.78737  -5.07862  2.60084
630  1  2.2165  -5.07862  2.60084
631  1  2.64562  -5.07862  2.60084
632  1  3.07475  -5.07862  2.60084
633  1  3.50387  -5.07862  2.60084
634  1  3.933  -5.07862  2.60084
635  1  4.36212  -5.07862  2.60084
636  1  4.79125  -5.07862  2.60084
637  1  5.22037  -5.07862  2.60084
638  1  5.6495  -5.07862  2.60084
639  1  6.07862  -5.07862  2.60084
640  1  6.50775  -5.07862  2.60084
641  1  6.93687  -5.07862  2.60084
642  1  7.366  -5.07862  2.60084
643  1  7.79512  -5.07862  2.60084
644  1  8.22425  -5.07862  2.60084
645  1  8.65337  -5.07862  2.60084
646  1  9.0825  -5.07862  2.60084
647  1  9.51162  -5.07862  2.60084
648  1  9.94075  -5.07862  2.60084
649  1  10.3699  -5.07862  2.60084
650  1  10.799  -5.07862  2.60084
651  1  -10.2281  -4.6495  2.60084
652  1  -9.799  -4.6495  2.60084
653  1  -9.36987  -4.6495  2.60084
654  1  -8.94075  -4.6495  2.60084
655  1  -8.51162  -4.6495  2.60084
656  1  -8.0825  -4.6495  2.60084
657  1  -7.65337  -4.6495  2.60084
658  1  -7.22425  -4.6495  2.60084
659  1  -6.79512  -4.6495  2.60084
660  1  -6.366  -4.6495  2.60084
661  1  -5.93687  -4.6495  2.60084
662  1  -5.50775  -4.6495  2.60084
663  1  -5.07862  -4.6495  2.60084
664  1  -4.6495  -4.6495  2.60084
665  1  -4.22037  -4.6495  2.60084
666  1  -3.79125  -4.6495  2.60084
667  1  -3.36212  -4.6495  2.60084
668  1  -2.933  -4.6495  2.60084
669  1  -2.50387  -4.6495  2.60084
670  1  -2.07475  -4.6495  2.60084
671  1  -1.64562  -4.6495  2.60084
672  1  -1.2165  -4.6495  2.60084
673  1  -0.787375  -4.6495  2.60084
674  1  -0.35825  -4.6495  2.60084
675  1  0.0708751  -4.6495  2.60084
676  1  0.5  -4.6495  2.60084
677  1  0.929125  -4.6495  2.60084
678  1  1.35825  -4.6495  2.60084
679  1  1.78737  -4.6495  2.60084
680  1  2.2165  -4.6495  2.60084
681  1  2.64562  -4.6495  2.60084
682  1  3.07475  -4.6495  2.60084
683  1  3.50387  -4.6495  2.60084
684  1  3.933  -4.6495  2.60084
685  1  4.36212  -4.6495  2.60084
686  1  4.79125  -4.6495  2.60084
687  1  5.22037  -4.6495  2.60084
688  1  5.6495  -4.6495  2.60084
689  1  6.07862  -4.6495  2.60084
690  1  6.50775  -4.6495  2.60084
691  1  6.93687  -4.6495  2.60084
692  1  7.366  -4.6495  2.60084
693  1  7.79512  -4.6495  2.60084
694  1  8.22425  -4.6495  2.60084
695  1  8.65337  -4.6495  2.60084
696  1  9.0825  -4.6495  2.60084
697  1  9.51162  -4.6495  2.60084
698  1  9.94075  -4.6495  2.60084
699  1  10.3699  -4.6495  2.60084
700  1  10.799  -4.6495  2.60084
701  1  -10.2281  -4.22037  2.60084
702  1  -9.799  -4.22037  2.60084
703  1  -9.36987  -4.22037  2.60084
704  1  -8.94075  -4.22037  2.60084
705  1  -8.51162  -4.22037  2.60084
706  1  -8.0825  -4.22037  2.60084
707  1  -7.65337  -4.22037  2.60084
708  1  -7.22425  -4.22037  2.60084
709  1  -6.79512  -4.22037  2.60084
710  1  -6.366  -4.22037  2.60084
711  1  -5.93687  -4.22037  2.60084
712  1  -5.50775  -4.22037  2.60084
713  1  -5.07862  -4.22037  2.60084
714  1  -4.6495  -4.22037  2.60084
715  1  -4.22037  -4.22037  2.60084
716  1  -3.79125  -4.22037  2.60084
717  1  -3.36212  -4.22037  2.60084
718  1  -2.933  -4.22037  2.60084
719  1  -2.50387  -4.22037  2.60084
720  1  -2.07475  -4.22037  2.60084
721  1  -1.64562  -4.22037  2.60084
722  1  -1.2165  -4.22037  2.60084
723  1  -0.787375  -4.22037  2.60084
724  1  -0.35825  -4.22037  2.60084
725  1  0.0708751  -4.22037  2.60084
726  1  0.5  -4.22037  2.60084
727  1  0.929125  -4.22037  2.60084
728  1  1.35825  -4.22037  2.60084
729  1  1.78737  -4.22037  2.60084
730  1  2.2165  -4.22037  2.60084
731  1  2.64562  -4.22037  2.60084
732  1  3.07475  -4.22037  2.60084
733  1  3.50387  -4.22037  2.60084
734  1  3.933  -4.22037  2.60084
735  1  4.36212  -4.22037  2.60084
736  1  4.79125  -4.22037  2.60084
737  1  5.22037  -4.22037  2.60084
738  1  5.6495  -4.22037  2.60084
739  1  6.07862  -4.22037  2.60084
740  1  6.50775  -4.22037  2.60084
741  1  6.93687  -4.22037  2.60084
742  1  7.366  -4.22037  2.60084
743  1  7.79512  -4.22037  2.60084
744  1  8.22425  -4.22037  2.60084
745  1  8.65337  -4.22037  2.60084
746  1  9.0825  -4.22037  2.60084
747  1  9.51162  -4.22037  2.60084
748  1  9.94075  -4.22037  2.60084
749  1  10.3699  -4.22037  2.60084
750  1  10.799  -4.22037  2.60084
751  1  -10.2281  -3.79125  2.60084
752  1  -9.799  -3.79125  2.60084
753  1  -9.36987  -3.79125  2.60084
754  1  -8.94075  -3.79125  2.60084
755  1  -8.51162  -3.79125  2.60084
756  1  -8.0825  -3.79125  2.60084
757  1  -7.65337  -3.79125  2.60084
758  1  -7.22425  -3.79125  2.60084
759  1  -6.79512  -3.79125  2.60084
760  1  -6.366  -3.79125  2.60084
761  1  -5.93687  -3.79125  2.60084
762  1  -5.50775  -3.79125  2.60084
763  1  -5.07862  -3.79125  2.60084
764  1  -4.6495  -3.79125  2.60084
765  1  -4.22037  -3.79125  2.60084
766  1  -3.79125  -3.79125  2.60084
767  1  -3.36212  -3.79125  2.60084
768  1  -2.933  -3.79125  2.60084
769  1  -2.50387  -3.79125  2.60084
770  1  -2.07475  -3.79125  2.60084
771  1  -1.64562  -3.79125  2.60084
772  1  -1.2165  -3.79125  2.60084
773  1  -0.787375  -3.79125  2.60084
774  1  -0.35825  -3.79125  2.60084
775  1  0.0708751  -3.79125  2.60084
776  1  0.5  -3.79125  2.60084
777  1  0.929125  -3.79125  2.60084
778  1  1.35825  -3.79125  2.60084
779  1  1.78737  -3.79125  2.60084
780  1  2.2165  -3.79125  2.60084
781  1  2.64562  -3.79125  2.60084
782  1  3.07475  -3.79125  2.60084
783  1  3.50387  -3.79125  2.60084
784  1  3.933  -3.79125  2.60084
785  1  4.36212  -3.79125  2.60084
786  1  4.79125  -3.79125  2.60084
787  1  5.22037  -3.79125  2.60084
788  1  5.6495  -3.79125  2.60084
789  1  6.07862  -3.79125  2.60084
790  1  6.50775  -3.79125  2.60084
791  1  6.93687  -3.79125  2.60084
792  1  7.366  -3.79125  2.60084
793  1  7.79512  -3.79125  2.60084
794  1  8.22425  -3.79125  2.60084
795  1  8.65337  -3.79125  2.60084
796  1  9.0825  -3.79125  2.60084
797  1  9.51162  -3.79125  2.60084
798  1  9.94075  -3.79125  2.60084
799  1  10.3699  -3.79125  2.60084
800  1  10.799  -3.79125  2.60084
801  1  -10.2281  -3.36212  2.60084
802  1  -9.799  -3.36212  2.60084
803  1  -9.36987  -3.36212  2.60084
804  1  -8.94075  -3.36212  2.60084
805  1  -8.51162  -3.36212  2.60084
806  1  -8.0825  -3.36212  2.60084
807  1  -7.65337  -3.36212  2.60084
808  1  -7.22425  -3.36212  2.60084
809  1  -6.79512  -3.36212  2.60084
810  1  -6.366  -3.36212  2.60084
811  1  -5.93687  -3.36212  2.60084
812  1  -5.50775  -3.36212  2.60084
813  1  -5.07862  -3.36212  2.60084
814  1  -4.6495  -3.36212  2.60084
815  1  -4.22037  -3.36212  2.60084
816  1  -3.79125  -3.36212  2.60084
817  1  -3.36212  -3.36212  2.60084
818  1  -2.933  -3.36212  2.60084
819  1  -2.50387  -3.36212  2.60084
820  1  -2.07475  -3.36212  2.60084
821  1  -1.64562  -3.36212  2.60084
822  1  -1.2165  -3.36212  2.60084
823  1  -0.787375  -3.36212  2.60084
824  1  -0.35825  -3.36212  2.60084
825  1  0.0708751  -3.36212  2.60084
826  1  0.5  -3.36212  2.60084
827  1  0.929125  -3.36212  2.60084
828  1  1.35825  -3.36212  2.60084
829  1  1.78737  -3.36212  2.60084
830  1  2.2165  -3.36212  2.60084
831  1  2.64562  -3.36212  2.60084
832  1  3.07475  -3.36212  2.60084
833  1  3.50387  -3.36212  2.60084
834  1  3.933  -3.36212  2.60084
835  1  4.36212  -3.36212  2.60084
836  1  4.79125  -3.36212  2.60084
837  1  5.22037  -3.36212  2.60084
838  1  5.6495  -3.36212  2.60084
839  1  6.07862  -3.36212  2.60084
840  1  6.50775  -3.36212  2.60084
841  1  6.93687  -3.36212  2.60084
842  1  7.366  -3.36212  2.60084
843  1  7.79512  -3.36212  2.60084
844  1  8.22425  -3.36212  2.60084
845  1  8.65337  -3.36212  2.60084
846  1  9.0825  -3.36212  2.60084
847  1  9.51162  -3.36212  2.60084
848  1  9.94075  -3.36212  2.60084
849  1  10.3699  -3.36212  2.60084
850  1  10.799  -3.36212  2.60084
851  1  -10.2281  -2.933  2.60084
852  1  -9.799  -2.933  2.60084
853  1  -9.36987  -2.933  2.60084
854  1  -8.94075  -2.933  2.60084
855  1  -8.51162  -2.933  2.60084
856  1  -8.0825  -2.933  2.60084
857  1  -7.65337  -2.933  2.60084
858  1  -7.22425  -2.933  2.60084
859  1  -6.79512  -2.933  2.60084
860  1  -6.366  -2.933  2.60084
861  1  -5.93687  -2.933  2.60084