LAMMPS data file
424 atoms
2 atom types
-10.7281 10.7281 xlo xhi
-10.7281 10.7281 ylo yhi
-2.10084 2.10084 zlo zhi
 
Atoms
 
1   1   8.862010124   -10.22812235   -10.22812235   -1.600840336
2   1   8.862010124   -10.22812235   -10.22812235   -0.6008403361
3   1   8.862010124   -10.22812235   -10.22812235   0.3991596639
4   1   8.862010124   -10.22812235   -10.22812235   1.399159664
5   1   8.862010124   -10.22812235   -9.228122352   -1.600840336
6   1   8.862010124   -10.22812235   -9.228122352   -0.6008403361
7   1   8.862010124   -10.22812235   -9.228122352   0.3991596639
8   1   8.862010124   -10.22812235   -9.228122352   1.399159664
9   1   8.862010124   -10.22812235   -8.228122352   -1.600840336
10   1   8.862010124   -10.22812235   -8.228122352   -0.6008403361
11   1   8.862010124   -10.22812235   -8.228122352   0.3991596639
12   1   8.862010124   -10.22812235   -8.228122352   1.399159664
13   1   8.862010124   -10.22812235   -7.228122352   -1.600840336
14   1   8.862010124   -10.22812235   -7.228122352   -0.6008403361
15   1   8.862010124   -10.22812235   -7.228122352   0.3991596639
16   1   8.862010124   -10.22812235   -7.228122352   1.399159664
17   1   8.862010124   -10.22812235   -6.228122352   -1.600840336
18   1   8.862010124   -10.22812235   -6.228122352   -0.6008403361
19   1   8.862010124   -10.22812235   -6.228122352   0.3991596639
20   1   8.862010124   -10.22812235   -6.228122352   1.399159664
21   1   8.862010124   -10.22812235   -5.228122352   -1.600840336
22   1   8.862010124   -10.22812235   -5.228122352   -0.6008403361
23   1   8.862010124   -10.22812235   -5.228122352   0.3991596639
24   1   8.862010124   -10.22812235   -5.228122352   1.399159664
25   1   8.862010124   -10.22812235   -4.228122352   -1.600840336
26   1   8.862010124   -10.22812235   -4.228122352   -0.6008403361
27   1   8.862010124   -10.22812235   -4.228122352   0.3991596639
28   1   8.862010124   -10.22812235   -4.228122352   1.399159664
29   1   8.862010124   -10.22812235   -3.228122352   -1.600840336
30   1   8.862010124   -10.22812235   -3.228122352   -0.6008403361
31   1   8.862010124   -10.22812235   -3.228122352   0.3991596639
32   1   8.862010124   -10.22812235   -3.228122352   1.399159664
33   1   8.862010124   -10.22812235   -2.228122352   -1.600840336
34   1   8.862010124   -10.22812235   -2.228122352   -0.6008403361
35   1   8.862010124   -10.22812235   -2.228122352   0.3991596639
36   1   8.862010124   -10.22812235   -2.228122352   1.399159664
37   1   8.862010124   -10.22812235   -1.228122352   -1.600840336
38   1   8.862010124   -10.22812235   -1.228122352   -0.6008403361
39   1   8.862010124   -10.22812235   -1.228122352   0.3991596639
40   1   8.862010124   -10.22812235   -1.228122352   1.399159664
41   1   8.862010124   -10.22812235   -0.228122352   -1.600840336
42   1   8.862010124   -10.22812235   -0.228122352   -0.6008403361
43   1   8.862010124   -10.22812235   -0.228122352   0.3991596639
44   1   8.862010124   -10.22812235   -0.228122352   1.399159664
45   1   8.862010124   -10.22812235   0.771877648   -1.600840336
46   1   8.862010124   -10.22812235   0.771877648   -0.6008403361
47   1   8.862010124   -10.22812235   0.771877648   0.3991596639
48   1   8.862010124   -10.22812235   0.771877648   1.399159664
49   1   8.862010124   -10.22812235   1.771877648   -1.600840336
50   1   8.862010124   -10.22812235   1.771877648   -0.6008403361
51   1   8.862010124   -10.22812235   1.771877648   0.3991596639
52   1   8.862010124   -10.22812235   1.771877648   1.399159664
53   1   8.862010124   -10.22812235   2.771877648   -1.600840336
54   1   8.862010124   -10.22812235   2.771877648   -0.6008403361
55   1   8.862010124   -10.22812235   2.771877648   0.3991596639
56   1   8.862010124   -10.22812235   2.771877648   1.399159664
57   1   8.862010124   -10.22812235   3.771877648   -1.600840336
58   1   8.862010124   -10.22812235   3.771877648   -0.6008403361
59   1   8.862010124   -10.22812235   3.771877648   0.3991596639
60   1   8.862010124   -10.22812235   3.771877648   1.399159664
61   1   8.862010124   -10.22812235   4.771877648   -1.600840336
62   1   8.862010124   -10.22812235   4.771877648   -0.6008403361
63   1   8.862010124   -10.22812235   4.771877648   0.3991596639
64   1   8.862010124   -10.22812235   4.771877648   1.399159664
65   1   8.862010124   -10.22812235   5.771877648   -1.600840336
66   1   8.862010124   -10.22812235   5.771877648   -0.6008403361
67   1   8.862010124   -10.22812235   5.771877648   0.3991596639
68   1   8.862010124   -10.22812235   5.771877648   1.399159664
69   1   8.862010124   -10.22812235   6.771877648   -1.600840336
70   1   8.862010124   -10.22812235   6.771877648   -0.6008403361
71   1   8.862010124   -10.22812235   6.771877648   0.3991596639
72   1   8.862010124   -10.22812235   6.771877648   1.399159664
73   1   8.862010124   -10.22812235   7.771877648   -1.600840336
74   1   8.862010124   -10.22812235   7.771877648   -0.6008403361
75   1   8.862010124   -10.22812235   7.771877648   0.3991596639
76   1   8.862010124   -10.22812235   7.771877648   1.399159664
77   1   8.862010124   -10.22812235   8.771877648   -1.600840336
78   1   8.862010124   -10.22812235   8.771877648   -0.6008403361
79   1   8.862010124   -10.22812235   8.771877648   0.3991596639
80   1   8.862010124   -10.22812235   8.771877648   1.399159664
81   1   8.862010124   -10.22812235   9.771877648   -1.600840336
82   1   8.862010124   -10.22812235   9.771877648   -0.6008403361
83   1   8.862010124   -10.22812235   9.771877648   0.3991596639
84   1   8.862010124   -10.22812235   9.771877648   1.399159664
85   1   8.862010124   -9.228122352   -10.22812235   -1.600840336
86   1   8.862010124   -9.228122352   -10.22812235   -0.6008403361
87   1   8.862010124   -9.228122352   -10.22812235   0.3991596639
88   1   8.862010124   -9.228122352   -10.22812235   1.399159664
89   1   8.862010124   -9.228122352   -9.228122352   -1.600840336
90   1   8.862010124   -9.228122352   -9.228122352   -0.6008403361
91   1   8.862010124   -9.228122352   -9.228122352   0.3991596639
92   1   8.862010124   -9.228122352   -9.228122352   1.399159664
93   1   8.862010124   -9.228122352   -8.228122352   -1.600840336
94   1   8.862010124   -9.228122352   -8.228122352   -0.6008403361
95   1   8.862010124   -9.228122352   -8.228122352   0.3991596639
96   1   8.862010124   -9.228122352   -8.228122352   1.399159664
97   1   8.862010124   -9.228122352   -7.228122352   -1.600840336
98   1   8.862010124   -9.228122352   -7.228122352   -0.6008403361
99   1   8.862010124   -9.228122352   -7.228122352   0.3991596639
100   1   8.862010124   -9.228122352   -7.228122352   1.399159664
101   1   8.862010124   -9.228122352   -6.228122352   -1.600840336
102   1   8.862010124   -9.228122352   -6.228122352   -0.6008403361
103   1   8.862010124   -9.228122352   -6.228122352   0.3991596639
104   1   8.862010124   -9.228122352   -6.228122352   1.399159664
105   1   8.862010124   -9.228122352   -5.228122352   -1.600840336
106   1   8.862010124   -9.228122352   -5.228122352   -0.6008403361
107   1   8.862010124   -9.228122352   -5.228122352   0.3991596639
108   1   8.862010124   -9.228122352   -5.228122352   1.399159664
109   1   8.862010124   -9.228122352   -4.228122352   -1.600840336
110   1   8.862010124   -9.228122352   -4.228122352   -0.6008403361
111   1   8.862010124   -9.228122352   -4.228122352   0.3991596639
112   1   8.862010124   -9.228122352   -4.228122352   1.399159664
113   1   8.862010124   -9.228122352   -3.228122352   -1.600840336
114   1   8.862010124   -9.228122352   -3.228122352   -0.6008403361
115   1   8.862010124   -9.228122352   -3.228122352   0.3991596639
116   1   8.862010124   -9.228122352   -3.228122352   1.399159664
117   1   8.862010124   -9.228122352   -2.228122352   -1.600840336
118   1   8.862010124   -9.228122352   -2.228122352   -0.6008403361
119   1   8.862010124   -9.228122352   -2.228122352   0.3991596639
120   1   8.862010124   -9.228122352   -2.228122352   1.399159664
121   1   8.862010124   -9.228122352   -1.228122352   -1.600840336
122   1   8.862010124   -9.228122352   -1.228122352   -0.6008403361
123   1   8.862010124   -9.228122352   -1.228122352   0.3991596639
124   1   8.862010124   -9.228122352   -1.228122352   1.399159664
125   1   8.862010124   -9.228122352   -0.228122352   -1.600840336
126   1   8.862010124   -9.228122352   -0.228122352   -0.6008403361
127   1   8.862010124   -9.228122352   -0.228122352   0.3991596639
128   1   8.862010124   -9.228122352   -0.228122352   1.399159664
129   1   8.862010124   -9.228122352   0.771877648   -1.600840336
130   1   8.862010124   -9.228122352   0.771877648   -0.6008403361
131   1   8.862010124   -9.228122352   0.771877648   0.3991596639
132   1   8.862010124   -9.228122352   0.771877648   1.399159664
133   1   8.862010124   -9.228122352   1.771877648   -1.600840336
134   1   8.862010124   -9.228122352   1.771877648   -0.6008403361
135   1   8.862010124   -9.228122352   1.771877648   0.3991596639
136   1   8.862010124   -9.228122352   1.771877648   1.399159664
137   1   8.862010124   -9.228122352   2.771877648   -1.600840336
138   1   8.862010124   -9.228122352   2.771877648   -0.6008403361
139   1   8.862010124   -9.228122352   2.771877648   0.3991596639
140   1   8.862010124   -9.228122352   2.771877648   1.399159664
141   1   8.862010124   -9.228122352   3.771877648   -1.600840336
142   1   8.862010124   -9.228122352   3.771877648   -0.6008403361
143   1   8.862010124   -9.228122352   3.771877648   0.3991596639
144   1   8.862010124   -9.228122352   3.771877648   1.399159664
145   1   8.862010124   -9.228122352   4.771877648   -1.600840336
146   1   8.862010124   -9.228122352   4.771877648   -0.6008403361
147   1   8.862010124   -9.228122352   4.771877648   0.3991596639
148   1   8.862010124   -9.228122352   4.771877648   1.399159664
149   1   8.862010124   -9.228122352   5.771877648   -1.600840336
150   1   8.862010124   -9.228122352   5.771877648   -0.6008403361
151   1   8.862010124   -9.228122352   5.771877648   0.3991596639
152   1   8.862010124   -9.228122352   5.771877648   1.399159664
153   1   8.862010124   -9.228122352   6.771877648   -1.600840336
154   1   8.862010124   -9.228122352   6.771877648   -0.6008403361
155   1   8.862010124   -9.228122352   6.771877648   0.3991596639
156   1   8.862010124   -9.228122352   6.771877648   1.399159664
157   1   8.862010124   -9.228122352   7.771877648   -1.600840336
158   1   8.862010124   -9.228122352   7.771877648   -0.6008403361
159   1   8.862010124   -9.228122352   7.771877648   0.3991596639
160   1   8.862010124   -9.228122352   7.771877648   1.399159664
161   1   8.862010124   -9.228122352   8.771877648   -1.600840336
162   1   8.862010124   -9.228122352   8.771877648   -0.6008403361
163   1   8.862010124   -9.228122352   8.771877648   0.3991596639
164   1   8.862010124   -9.228122352   8.771877648   1.399159664
165   1   8.862010124   -9.228122352   9.771877648   -1.600840336
166   1   8.862010124   -9.228122352   9.771877648   -0.6008403361
167   1   8.862010124   -9.228122352   9.771877648   0.3991596639
168   1   8.862010124   -9.228122352   9.771877648   1.399159664
169   1   8.862010124   -8.228122352   -10.22812235   -1.600840336
170   1   8.862010124   -8.228122352   -10.22812235   -0.6008403361
171   1   8.862010124   -8.228122352   -10.22812235   0.3991596639
172   1   8.862010124   -8.228122352   -10.22812235   1.399159664
173   1   8.862010124   -8.228122352   -9.228122352   -1.600840336
174   1   8.862010124   -8.228122352   -9.228122352   -0.6008403361
175   1   8.862010124   -8.228122352   -9.228122352   0.3991596639
176   1   8.862010124   -8.228122352   -9.228122352   1.399159664
177   1   8.862010124   -8.228122352   -8.228122352   -1.600840336
178   1   8.862010124   -8.228122352   -8.228122352   -0.6008403361
179   1   8.862010124   -8.228122352   -8.228122352   0.3991596639
180   1   8.862010124   -8.228122352   -8.228122352   1.399159664
181   1   8.862010124   -8.228122352   -7.228122352   -1.600840336
182   1   8.862010124   -8.228122352   -7.228122352   -0.6008403361
183   1   8.862010124   -8.228122352   -7.228122352   0.3991596639
184   1   8.862010124   -8.228122352   -7.228122352   1.399159664
185   1   8.862010124   -8.228122352   -6.228122352   -1.600840336
186   1   8.862010124   -8.228122352   -6.228122352   -0.6008403361
187   1   8.862010124   -8.228122352   -6.228122352   0.3991596639
188   1   8.862010124   -8.228122352   -6.228122352   1.399159664
189   1   8.862010124   -8.228122352   -5.228122352   -1.600840336
190   1   8.862010124   -8.228122352   -5.228122352   -0.6008403361
191   1   8.862010124   -8.228122352   -5.228122352   0.3991596639
192   1   8.862010124   -8.228122352   -5.228122352   1.399159664
193   1   8.862010124   -8.228122352   -4.228122352   -1.600840336
194   1   8.862010124   -8.228122352   -4.228122352   -0.6008403361
195   1   8.862010124   -8.228122352   -4.228122352   0.3991596639
196   1   8.862010124   -8.228122352   -4.228122352   1.399159664
197   1   8.862010124   -8.228122352   -3.228122352   -1.600840336
198   1   8.862010124   -8.228122352   -3.228122352   -0.6008403361
199   1   8.862010124   -8.228122352   -3.228122352   0.3991596639
200   1   8.862010124   -8.228122352   -3.228122352   1.399159664
201   1   8.862010124   -8.228122352   -2.228122352   -1.600840336
202   1   8.862010124   -8.228122352   -2.228122352   -0.6008403361
203   1   8.862010124   -8.228122352   -2.228122352   0.3991596639
204   1   8.862010124   -8.228122352   -2.228122352   1.399159664
205   1   8.862010124   -8.228122352   -1.228122352   -1.600840336
206   1   8.862010124   -8.228122352   -1.228122352   -0.6008403361
207   1   8.862010124   -8.228122352   -1.228122352   0.3991596639
208   1   8.862010124   -8.228122352   -1.228122352   1.399159664
209   1   8.862010124   -8.228122352   -0.228122352   -1.600840336
210   1   8.862010124   -8.228122352   -0.228122352   -0.6008403361
211   1   8.862010124   -8.228122352   -0.228122352   0.3991596639
212   1   8.862010124   -8.228122352   -0.228122352   1.399159664
213   2   -8.862010124   -8.228122352   0.771877648   -1.600840336
214   2   -8.862010124   -8.228122352   0.771877648   -0.6008403361
215   2   -8.862010124   -8.228122352   0.771877648   0.3991596639
216   2   -8.862010124   -8.228122352   0.771877648   1.399159664
217   2   -8.862010124   -8.228122352   1.771877648   -1.600840336
218   2   -8.862010124   -8.228122352   1.771877648   -0.6008403361
219   2   -8.862010124   -8.228122352   1.771877648   0.3991596639
220   2   -8.862010124   -8.228122352   1.771877648   1.399159664
221   2   -8.862010124   -8.228122352   2.771877648   -1.600840336
222   2   -8.862010124   -8.228122352   2.771877648   -0.6008403361
223   2   -8.862010124   -8.228122352   2.771877648   0.3991596639
224   2   -8.862010124   -8.228122352   2.771877648   1.399159664
225   2   -8.862010124   -8.228122352   3.771877648   -1.600840336
226   2   -8.862010124   -8.228122352   3.771877648   -0.6008403361
227   2   -8.862010124   -8.228122352   3.771877648   0.3991596639
228   2   -8.862010124   -8.228122352   3.771877648   1.399159664
229   2   -8.862010124   -8.228122352   4.771877648   -1.600840336
230   2   -8.862010124   -8.228122352   4.771877648   -0.6008403361
231   2   -8.862010124   -8.228122352   4.771877648   0.3991596639
232   2   -8.862010124   -8.228122352   4.771877648   1.399159664
233   2   -8.862010124   -8.228122352   5.771877648   -1.600840336
234   2   -8.862010124   -8.228122352   5.771877648   -0.6008403361
235   2   -8.862010124   -8.228122352   5.771877648   0.3991596639
236   2   -8.862010124   -8.228122352   5.771877648   1.399159664
237   2   -8.862010124   -8.228122352   6.771877648   -1.600840336
238   2   -8.862010124   -8.228122352   6.771877648   -0.6008403361
239   2   -8.862010124   -8.228122352   6.771877648   0.3991596639
240   2   -8.862010124   -8.228122352   6.771877648   1.399159664
241   2   -8.862010124   -8.228122352   7.771877648   -1.600840336
242   2   -8.862010124   -8.228122352   7.771877648   -0.6008403361
243   2   -8.862010124   -8.228122352   7.771877648   0.3991596639
244   2   -8.862010124   -8.228122352   7.771877648   1.399159664
245   2   -8.862010124   -8.228122352   8.771877648   -1.600840336
246   2   -8.862010124   -8.228122352   8.771877648   -0.6008403361
247   2   -8.862010124   -8.228122352   8.771877648   0.3991596639
248   2   -8.862010124   -8.228122352   8.771877648   1.399159664
249   2   -8.862010124   -8.228122352   9.771877648   -1.600840336
250   2   -8.862010124   -8.228122352   9.771877648   -0.6008403361
251   2   -8.862010124   -8.228122352   9.771877648   0.3991596639
252   2   -8.862010124   -8.228122352   9.771877648   1.399159664
253   2   -8.862010124   -7.228122352   -10.22812235   -1.600840336
254   2   -8.862010124   -7.228122352   -10.22812235   -0.6008403361
255   2   -8.862010124   -7.228122352   -10.22812235   0.3991596639
256   2   -8.862010124   -7.228122352   -10.22812235   1.399159664
257   2   -8.862010124   -7.228122352   -9.228122352   -1.600840336
258   2   -8.862010124   -7.228122352   -9.228122352   -0.6008403361
259   2   -8.862010124   -7.228122352   -9.228122352   0.3991596639
260   2   -8.862010124   -7.228122352   -9.228122352   1.399159664
261   2   -8.862010124   -7.228122352   -8.228122352   -1.600840336
262   2   -8.862010124   -7.228122352   -8.228122352   -0.6008403361
263   2   -8.862010124   -7.228122352   -8.228122352   0.3991596639
264   2   -8.862010124   -7.228122352   -8.228122352   1.399159664
265   2   -8.862010124   -7.228122352   -7.228122352   -1.600840336
266   2   -8.862010124   -7.228122352   -7.228122352   -0.6008403361
267   2   -8.862010124   -7.228122352   -7.228122352   0.3991596639
268   2   -8.862010124   -7.228122352   -7.228122352   1.399159664
269   2   -8.862010124   -7.228122352   -6.228122352   -1.600840336
270   2   -8.862010124   -7.228122352   -6.228122352   -0.6008403361
271   2   -8.862010124   -7.228122352   -6.228122352   0.3991596639
272   2   -8.862010124   -7.228122352   -6.228122352   1.399159664
273   2   -8.862010124   -7.228122352   -5.228122352   -1.600840336
274   2   -8.862010124   -7.228122352   -5.228122352   -0.6008403361
275   2   -8.862010124   -7.228122352   -5.228122352   0.3991596639
276   2   -8.862010124   -7.228122352   -5.228122352   1.399159664
277   2   -8.862010124   -7.228122352   -4.228122352   -1.600840336
278   2   -8.862010124   -7.228122352   -4.228122352   -0.6008403361
279   2   -8.862010124   -7.228122352   -4.228122352   0.3991596639
280   2   -8.862010124   -7.228122352   -4.228122352   1.399159664
281   2   -8.862010124   -7.228122352   -3.228122352   -1.600840336
282   2   -8.862010124   -7.228122352   -3.228122352   -0.6008403361
283   2   -8.862010124   -7.228122352   -3.228122352   0.3991596639
284   2   -8.862010124   -7.228122352   -3.228122352   1.399159664
285   2   -8.862010124   -7.228122352   -2.228122352   -1.600840336
286   2   -8.862010124   -7.228122352   -2.228122352   -0.6008403361
287   2   -8.862010124   -7.228122352   -2.228122352   0.3991596639
288   2   -8.862010124   -7.228122352   -2.228122352   1.399159664
289   2   -8.862010124   -7.228122352   -1.228122352   -1.600840336
290   2   -8.862010124   -7.228122352   -1.228122352   -0.6008403361
291   2   -8.862010124   -7.228122352   -1.228122352   0.3991596639
292   2   -8.862010124   -7.228122352   -1.228122352   1.399159664
293   2   -8.862010124   -7.228122352   -0.228122352   -1.600840336
294   2   -8.862010124   -7.228122352   -0.228122352   -0.6008403361
295   2   -8.862010124   -7.228122352   -0.228122352   0.3991596639
296   2   -8.862010124   -7.228122352   -0.228122352   1.399159664
297   2   -8.862010124   -7.228122352   0.771877648   -1.600840336
298   2   -8.862010124   -7.228122352   0.771877648   -0.6008403361
299   2   -8.862010124   -7.228122352   0.771877648   0.3991596639
300   2   -8.862010124   -7.228122352   0.771877648   1.399159664
301   2   -8.862010124   -7.228122352   1.771877648   -1.600840336
302   2   -8.862010124   -7.228122352   1.771877648   -0.6008403361
303   2   -8.862010124   -7.228122352   1.771877648   0.3991596639
304   2   -8.862010124   -7.228122352   1.771877648   1.399159664
305   2   -8.862010124   -7.228122352   2.771877648   -1.600840336
306   2   -8.862010124   -7.228122352   2.771877648   -0.6008403361
307   2   -8.862010124   -7.228122352   2.771877648   0.3991596639
308   2   -8.862010124   -7.228122352   2.771877648   1.399159664
309   2   -8.862010124   -7.228122352   3.771877648   -1.600840336
310   2   -8.862010124   -7.228122352   3.771877648   -0.6008403361
311   2   -8.862010124   -7.228122352   3.771877648   0.3991596639
312   2   -8.862010124   -7.228122352   3.771877648   1.399159664
313   2   -8.862010124   -7.228122352   4.771877648   -1.600840336
314   2   -8.862010124   -7.228122352   4.771877648   -0.6008403361
315   2   -8.862010124   -7.228122352   4.771877648   0.3991596639
316   2   -8.862010124   -7.228122352   4.771877648   1.399159664
317   2   -8.862010124   -7.228122352   5.771877648   -1.600840336
318   2   -8.862010124   -7.228122352   5.771877648   -0.6008403361
319   2   -8.862010124   -7.228122352   5.771877648   0.3991596639
320   2   -8.862010124   -7.228122352   5.771877648   1.399159664
321   2   -8.862010124   -7.228122352   6.771877648   -1.600840336
322   2   -8.862010124   -7.228122352   6.771877648   -0.6008403361
323   2   -8.862010124   -7.228122352   6.771877648   0.3991596639
324   2   -8.862010124   -7.228122352   6.771877648   1.399159664
325   2   -8.862010124   -7.228122352   7.771877648   -1.600840336
326   2   -8.862010124   -7.228122352   7.771877648   -0.6008403361
327   2   -8.862010124   -7.228122352   7.771877648   0.3991596639
328   2   -8.862010124   -7.228122352   7.771877648   1.399159664
329   2   -8.862010124   -7.228122352   8.771877648   -1.600840336
330   2   -8.862010124   -7.228122352   8.771877648   -0.6008403361
331   2   -8.862010124   -7.228122352   8.771877648   0.3991596639
332   2   -8.862010124   -7.228122352   8.771877648   1.399159664
333   2   -8.862010124   -7.228122352   9.771877648   -1.600840336
334   2   -8.862010124   -7.228122352   9.771877648   -0.6008403361
335   2   -8.862010124   -7.228122352   9.771877648   0.3991596639
336   2   -8.862010124   -7.228122352   9.771877648   1.399159664
337   2   -8.862010124   -6.228122352   -10.22812235   -1.600840336
338   2   -8.862010124   -6.228122352   -10.22812235   -0.6008403361
339   2   -8.862010124   -6.228122352   -10.22812235   0.3991596639
340   2   -8.862010124   -6.228122352   -10.22812235   1.399159664
341   2   -8.862010124   -6.228122352   -9.228122352   -1.600840336
342   2   -8.862010124   -6.228122352   -9.228122352   -0.6008403361
343   2   -8.862010124   -6.228122352   -9.228122352   0.3991596639
344   2   -8.862010124   -6.228122352   -9.228122352   1.399159664
345   2   -8.862010124   -6.228122352   -8.228122352   -1.600840336
346   2   -8.862010124   -6.228122352   -8.228122352   -0.6008403361
347   2   -8.862010124   -6.228122352   -8.228122352   0.3991596639
348   2   -8.862010124   -6.228122352   -8.228122352   1.399159664
349   2   -8.862010124   -6.228122352   -7.228122352   -1.600840336
350   2   -8.862010124   -6.228122352   -7.228122352   -0.6008403361
351   2   -8.862010124   -6.228122352   -7.228122352   0.3991596639
352   2   -8.862010124   -6.228122352   -7.228122352   1.399159664
353   2   -8.862010124   -6.228122352   -6.228122352   -1.600840336
354   2   -8.862010124   -6.228122352   -6.228122352   -0.6008403361
355   2   -8.862010124   -6.228122352   -6.228122352   0.3991596639
356   2   -8.862010124   -6.228122352   -6.228122352   1.399159664
357   2   -8.862010124   -6.228122352   -5.228122352   -1.600840336
358   2   -8.862010124   -6.228122352   -5.228122352   -0.6008403361
359   2   -8.862010124   -6.228122352   -5.228122352   0.3991596639
360   2   -8.862010124   -6.228122352   -5.228122352   1.399159664
361   2   -8.862010124   -6.228122352   -4.228122352   -1.600840336
362   2   -8.862010124   -6.228122352   -4.228122352   -0.6008403361
363   2   -8.862010124   -6.228122352   -4.228122352   0.3991596639
364   2   -8.862010124   -6.228122352   -4.228122352   1.399159664
365   2   -8.862010124   -6.228122352   -3.228122352   -1.600840336
366   2   -8.862010124   -6.228122352   -3.228122352   -0.6008403361
367   2   -8.862010124   -6.228122352   -3.228122352   0.3991596639
368   2   -8.862010124   -6.228122352   -3.228122352   1.399159664
369   2   -8.862010124   -6.228122352   -2.228122352   -1.600840336
370   2   -8.862010124   -6.228122352   -2.228122352   -0.6008403361
371   2   -8.862010124   -6.228122352   -2.228122352   0.3991596639
372   2   -8.862010124   -6.228122352   -2.228122352   1.399159664
373   2   -8.862010124   -6.228122352   -1.228122352   -1.600840336
374   2   -8.862010124   -6.228122352   -1.228122352   -0.6008403361
375   2   -8.862010124   -6.228122352   -1.228122352   0.3991596639
376   2   -8.862010124   -6.228122352   -1.228122352   1.399159664
377   2   -8.862010124   -6.228122352   -0.228122352   -1.600840336
378   2   -8.862010124   -6.228122352   -0.228122352   -0.6008403361
379   2   -8.862010124   -6.228122352   -0.228122352   0.3991596639
380   2   -8.862010124   -6.228122352   -0.228122352   1.399159664
381   2   -8.862010124   -6.228122352   0.771877648   -1.600840336
382   2   -8.862010124   -6.228122352   0.771877648   -0.6008403361
383   2   -8.862010124   -6.228122352   0.771877648   0.3991596639
384   2   -8.862010124   -6.228122352   0.771877648   1.399159664
385   2   -8.862010124   -6.228122352   1.771877648   -1.600840336
386   2   -8.862010124   -6.228122352   1.771877648   -0.6008403361
387   2   -8.862010124   -6.228122352   1.771877648   0.3991596639
388   2   -8.862010124   -6.228122352   1.771877648   1.399159664
389   2   -8.862010124   -6.228122352   2.771877648   -1.600840336
390   2   -8.862010124   -6.228122352   2.771877648   -0.6008403361
391   2   -8.862010124   -6.228122352   2.771877648   0.3991596639
392   2   -8.862010124   -6.228122352   2.771877648   1.399159664
393   2   -8.862010124   -6.228122352   3.771877648   -1.600840336
394   2   -8.862010124   -6.228122352   3.771877648   -0.6008403361
395   2   -8.862010124   -6.228122352   3.771877648   0.3991596639
396   2   -8.862010124   -6.228122352   3.771877648   1.399159664
397   2   -8.862010124   -6.228122352   4.771877648   -1.600840336
398   2   -8.862010124   -6.228122352   4.771877648   -0.6008403361
399   2   -8.862010124   -6.228122352   4.771877648   0.3991596639
400   2   -8.862010124   -6.228122352   4.771877648   1.399159664
401   2   -8.862010124   -6.228122352   5.771877648   -1.600840336
402   2   -8.862010124   -6.228122352   5.771877648   -0.6008403361
403   2   -8.862010124   -6.228122352   5.771877648   0.3991596639
404   2   -8.862010124   -6.228122352   5.771877648   1.399159664
405   2   -8.862010124   -6.228122352   6.771877648   -1.600840336
406   2   -8.862010124   -6.228122352   6.771877648   -0.6008403361
407   2   -8.862010124   -6.228122352   6.771877648   0.3991596639
408   2   -8.862010124   -6.228122352   6.771877648   1.399159664
409   2   -8.862010124   -6.228122352   7.771877648   -1.600840336
410   2   -8.862010124   -6.228122352   7.771877648   -0.6008403361
411   2   -8.862010124   -6.228122352   7.771877648   0.3991596639
412   2   -8.862010124   -6.228122352   7.771877648   1.399159664
413   2   -8.862010124   -6.228122352   8.771877648   -1.600840336
414   2   -8.862010124   -6.228122352   8.771877648   -0.6008403361
415   2   -8.862010124   -6.228122352   8.771877648   0.3991596639
416   2   -8.862010124   -6.228122352   8.771877648   1.399159664
417   2   -8.862010124   -6.228122352   9.771877648   -1.600840336
418   2   -8.862010124   -6.228122352   9.771877648   -0.6008403361
419   2   -8.862010124   -6.228122352   9.771877648   0.3991596639
420   2   -8.862010124   -6.228122352   9.771877648   1.399159664
421   2   -8.862010124   -5.228122352   -10.22812235   -1.600840336
422   2   -8.862010124   -5.228122352   -10.22812235   -0.6008403361
423   2   -8.862010124   -5.228122352   -10.22812235   0.3991596639
424   2   -8.862010124   -5.228122352   -10.22812235   1.399159664
