ITEM: TIMESTEP
1000
ITEM: NUMBER OF ATOMS
424
ITEM: BOX BOUNDS pp pp ff
-10.7281 10.7281
-10.7281 10.7281
-2.60084 2.60084
ITEM: ATOMS id type q x y z 
10 1 8.86201 -7.78975 -7.90059 -0.00387935 
149 1 8.86201 -9.35252 -6.52271 0.470155 
174 1 8.86201 -7.06211 -8.11652 -0.753344 
180 1 8.86201 -6.68966 -9.45542 0.882016 
194 1 8.86201 -9.69526 -6.63985 -1.24075 
199 1 8.86201 -8.13954 -10.0705 1.10218 
228 2 -8.86201 -10.4305 -6.79462 -0.287054 
282 2 -8.86201 -6.78835 -10.647 1.44961 
288 2 -8.86201 -6.68533 -6.61265 -0.870434 
315 2 -8.86201 -7.44286 -9.8597 -1.22326 
338 2 -8.86201 -10.0617 -10.4765 -0.702692 
346 2 -8.86201 -8.39589 -6.91035 -0.965082 
395 2 -8.86201 -8.03129 -9.30256 0.190516 
424 2 -8.86201 -6.88739 -8.71791 -1.47154 
8 1 8.86201 -3.88573 -8.05908 0.31431 
30 1 8.86201 -2.76441 -6.69364 -1.384 
51 1 8.86201 -6.31492 -10.635 -0.490911 
61 1 8.86201 -3.94764 -8.87598 -1.04261 
108 1 8.86201 -4.09301 -7.21331 -1.14411 
117 1 8.86201 -3.223 -8.73731 1.2802 
212 1 8.86201 -4.72179 -8.49707 1.01119 
238 2 -8.86201 -4.97238 -8.83752 -0.866754 
291 2 -8.86201 -5.08064 -9.98385 1.42563 
299 2 -8.86201 -3.23474 -9.58382 0.527405 
317 2 -8.86201 -3.74278 -10.1849 -1.4546 
360 2 -8.86201 -5.23714 -8.81707 0.145964 
383 2 -8.86201 -5.81238 -8.66422 0.981101 
412 2 -8.86201 -5.9563 -9.64194 -0.650481 
417 2 -8.86201 -3.7709 -7.86754 1.63646 
14 1 8.86201 -2.36625 -7.73254 1.03197 
343 2 -8.86201 -2.28785 -8.04434 -1.18672 
281 2 -8.86201 -2.57122 -7.36306 -0.0350642 
213 2 -8.86201 -2.06763 -9.33021 -1.08105 
300 2 -8.86201 -0.523842 -9.84133 -1.5382 
18 1 8.86201 -1.00138 -7.95594 -0.858439 
53 1 8.86201 1.39131 -9.00159 -1.45566 
67 1 8.86201 0.51867 -10.0088 1.59857 
158 1 8.86201 -1.87662 -8.93386 0.135476 
172 1 8.86201 -0.814344 -6.77104 -1.25148 
177 1 8.86201 -0.523488 -9.24256 -0.371261 
235 2 -8.86201 0.672559 -7.72093 -1.47823 
289 2 -8.86201 1.26345 -9.41088 0.567117 
302 2 -8.86201 -0.238726 -10.2667 -0.61644 
336 2 -8.86201 1.96246 -8.59853 -0.543788 
356 2 -8.86201 -0.449088 -8.04254 0.145421 
406 2 -8.86201 -1.07125 -8.91873 1.46914 
54 1 8.86201 1.66767 -7.82917 0.418823 
99 1 8.86201 1.33163 -9.98242 -1.28748 
277 2 -8.86201 1.55994 -7.11427 1.513 
382 2 -8.86201 1.83244 -7.40147 -0.494524 
230 2 -8.86201 1.29771 -6.71991 -1.16039 
414 2 -8.86201 0.806223 -10.5452 -0.231964 
59 1 8.86201 3.09696 -9.99959 -1.37218 
266 2 -8.86201 2.48973 -6.90935 0.659158 
15 1 8.86201 4.25128 -6.908 1.11458 
28 1 8.86201 2.76144 -7.75379 -1.29254 
35 1 8.86201 3.32565 -8.8363 0.26526 
43 1 8.86201 5.73556 -7.4986 0.228737 
85 1 8.86201 4.88979 -8.32197 0.510093 
134 1 8.86201 5.48202 -10.161 0.357442 
184 1 8.86201 3.70618 -7.87423 1.2463 
253 2 -8.86201 3.37286 -8.71541 -1.36757 
256 2 -8.86201 6.4323 -9.01548 1.48432 
305 2 -8.86201 3.77139 -7.25283 0.148558 
329 2 -8.86201 4.50232 -7.66644 -0.500043 
353 2 -8.86201 5.01593 -7.93106 1.57455 
359 2 -8.86201 5.2623 -9.42082 -0.389267 
369 2 -8.86201 5.66361 -7.27875 -1.49448 
148 1 8.86201 6.14753 -8.67579 -1.43209 
198 1 8.86201 3.39042 -6.77302 -1.3262 
200 1 8.86201 5.2402 -10.6919 -0.959432 
231 2 -8.86201 9.56683 -7.2573 -0.749925 
63 1 8.86201 7.08257 -9.66183 -1.27075 
39 1 8.86201 6.52223 -10.2653 -0.424748 
100 1 8.86201 9.30091 -9.00195 -0.189028 
122 1 8.86201 8.44023 -7.82025 0.248855 
211 1 8.86201 6.55124 -8.03484 1.0437 
215 2 -8.86201 8.01877 -7.40018 -1.37174 
297 2 -8.86201 8.83298 -10.082 -1.44889 
321 2 -8.86201 7.97387 -9.54263 -0.266341 
405 2 -8.86201 8.88121 -10.2024 1.34479 
408 2 -8.86201 10.5799 -8.7307 -0.65533 
113 1 8.86201 7.00592 -6.5904 -1.41012 
379 2 -8.86201 6.85198 -6.61322 0.0800568 
226 2 -8.86201 -7.33989 -6.32563 -0.0265586 
16 1 8.86201 -10.3459 -4.81161 -0.121351 
24 1 8.86201 -6.99967 -4.60639 -1.19372 
45 1 8.86201 -7.71764 -5.52446 1.40515 
93 1 8.86201 -7.61267 -6.09449 -1.14806 
94 1 8.86201 -7.66427 -3.2436 0.866463 
102 1 8.86201 -8.86546 -2.54067 -0.990647 
111 1 8.86201 -9.6498 -3.91566 1.623 
112 1 8.86201 -6.49624 -2.57152 1.58162 
146 1 8.86201 -9.53213 -2.87442 -0.318668 
151 1 8.86201 -7.22402 -4.49485 -0.0362783 
219 2 -8.86201 -8.70278 -5.27349 -0.0668586 
255 2 -8.86201 -8.92184 -5.68726 -1.33519 
261 2 -8.86201 -8.69572 -3.98859 0.972396 
262 2 -8.86201 -7.36545 -3.4277 -0.270059 
270 2 -8.86201 -9.77237 -5.79818 1.54418 
272 2 -8.86201 -10.2439 -5.66606 -0.934421 
351 2 -8.86201 -6.45635 -5.48346 -1.3442 
384 2 -8.86201 -8.46216 -2.55042 0.226265 
400 2 -8.86201 -9.86801 -3.90624 -0.902816 
62 1 8.86201 -6.64233 -2.60701 0.0723093 
17 1 8.86201 -2.97068 -6.29689 0.850728 
5 1 8.86201 -5.43963 -6.3716 -1.43934 
11 1 8.86201 -4.42806 -3.62091 -0.893168 
25 1 8.86201 -5.54677 -3.24452 -0.487419 
34 1 8.86201 -5.29939 -6.14098 1.33912 
40 1 8.86201 -3.44087 -2.76473 -1.59235 
84 1 8.86201 -2.78096 -5.57514 -1.49409 
92 1 8.86201 -4.32893 -6.07012 -0.592227 
154 1 8.86201 -5.23812 -5.06719 1.13528 
283 2 -8.86201 -4.23819 -5.40432 0.620141 
306 2 -8.86201 -6.31977 -2.7337 -1.09665 
309 2 -8.86201 -3.26338 -5.64011 -0.209436 
316 2 -8.86201 -5.31742 -5.36768 -0.204929 
324 2 -8.86201 -5.16981 -2.39512 0.288799 
375 2 -8.86201 -3.0482 -3.32863 -0.227077 
392 2 -8.86201 -6.41733 -5.42728 1.47451 
38 1 8.86201 -2.49317 -4.29313 -0.752674 
161 1 8.86201 -4.02014 -2.71587 -0.0937756 
218 2 -8.86201 0.33741 -6.03258 1.27052 
370 2 -8.86201 -1.3225 -3.41221 0.551657 
139 1 8.86201 1.34798 -5.50791 1.54815 
142 1 8.86201 -0.791442 -3.43274 1.35738 
144 1 8.86201 0.148746 -4.52827 -0.356919 
152 1 8.86201 -0.372622 -5.82773 0.571937 
166 1 8.86201 1.73505 -3.19337 1.28576 
176 1 8.86201 -0.674699 -4.93007 -1.44688 
251 2 -8.86201 -1.37036 -4.98141 -0.403486 
267 2 -8.86201 1.95648 -5.16406 -1.39419 
307 2 -8.86201 0.560204 -4.68848 -1.4816 
349 2 -8.86201 1.33049 -4.73879 -0.615253 
355 2 -8.86201 0.106283 -2.97304 0.550248 
365 2 -8.86201 1.31606 -2.24009 -1.40786 
374 2 -8.86201 -1.32321 -2.98617 -1.59554 
389 2 -8.86201 -1.87144 -6.11996 -1.39717 
319 2 -8.86201 -1.49602 -2.24843 1.31021 
41 1 8.86201 -0.162869 -3.55043 -1.43603 
202 1 8.86201 2.10753 -3.16308 -0.453164 
390 2 -8.86201 -1.51007 -2.2728 -0.863747 
323 2 -8.86201 5.93474 -6.08063 0.713685 
227 2 -8.86201 2.21959 -5.11461 0.541735 
326 2 -8.86201 3.0802 -3.66083 -0.0596892 
105 1 8.86201 4.75473 -2.85521 0.657492 
118 1 8.86201 4.17169 -3.5446 -0.828958 
125 1 8.86201 5.89839 -3.77861 0.324588 
128 1 8.86201 4.73666 -3.9382 1.30145 
136 1 8.86201 5.55005 -4.74013 -1.32648 
141 1 8.86201 3.18013 -4.94395 0.36061 
145 1 8.86201 2.43244 -6.22928 -0.424292 
147 1 8.86201 5.22038 -2.25476 -0.806664 
192 1 8.86201 3.13587 -3.67664 -1.32201 
293 2 -8.86201 4.9872 -4.39847 -0.0281907 
340 2 -8.86201 4.54028 -4.87863 -1.49052 
348 2 -8.86201 4.93246 -6.29814 -0.841988 
366 2 -8.86201 2.98727 -2.79643 0.982934 
357 2 -8.86201 6.18859 -2.40566 1.43611 
32 1 8.86201 8.32947 -6.22733 1.20033 
163 1 8.86201 9.98546 -5.52789 0.740956 
222 2 -8.86201 7.33359 -2.39711 -0.133151 
286 2 -8.86201 7.13976 -3.07834 -1.53334 
1 1 8.86201 10.0193 -3.64892 -0.683787 
36 1 8.86201 7.99412 -5.78748 -0.347542 
72 1 8.86201 10.3183 -5.77596 -0.311713 
132 1 8.86201 8.02196 -4.37541 -0.911178 
164 1 8.86201 9.06793 -3.41339 0.0319171 
187 1 8.86201 7.24934 -4.01817 -0.200995 
245 2 -8.86201 7.63361 -5.36314 1.1332 
278 2 -8.86201 8.0751 -3.77173 1.48491 
304 2 -8.86201 8.74713 -3.57953 -0.96603 
332 2 -8.86201 9.07596 -5.11434 1.58276 
347 2 -8.86201 8.61076 -5.049 0.309578 
385 2 -8.86201 10.391 -4.71511 -1.11641 
12 1 8.86201 -6.75049 0.219064 0.0273604 
19 1 8.86201 -8.18182 -0.507436 -0.283163 
90 1 8.86201 -10.0728 -1.16302 -1.39283 
110 1 8.86201 -8.88195 0.807576 0.843382 
130 1 8.86201 -8.37285 -0.624159 0.993862 
143 1 8.86201 -7.97973 1.38883 -1.05059 
167 1 8.86201 -7.75463 0.142788 1.44967 
275 2 -8.86201 -9.9666 0.247 1.40764 
280 2 -8.86201 -9.66268 -0.887589 -0.0415939 
339 2 -8.86201 -8.7001 -1.395 -1.30451 
364 2 -8.86201 -7.8263 1.6438 0.305049 
368 2 -8.86201 -8.18415 0.413308 0.116275 
418 2 -8.86201 -7.25223 -0.749124 -0.787933 
377 2 -8.86201 -6.48519 1.24452 -1.3328 
171 1 8.86201 -9.51531 1.69016 -1.57562 
350 2 -8.86201 -7.21498 2.05572 -1.52019 
387 2 -8.86201 -9.45337 0.859615 -0.790471 
396 2 -8.86201 -5.83396 -0.908491 -0.0169792 
207 1 8.86201 -3.36016 -1.51813 -1.23923 
233 2 -8.86201 -3.69335 -1.79399 1.53447 
4 1 8.86201 -6.36825 -0.352664 1.01146 
56 1 8.86201 -2.78503 2.11038 0.800365 
91 1 8.86201 -4.55565 0.558008 -0.269497 
101 1 8.86201 -5.45153 0.121925 -1.41249 
107 1 8.86201 -3.66304 -0.445313 0.255053 
115 1 8.86201 -5.27469 2.0426 -1.59125 
120 1 8.86201 -3.85496 2.05592 -1.44196 
162 1 8.86201 -6.33736 0.779092 1.11343 
182 1 8.86201 -2.44062 -0.724054 -0.127571 
241 2 -8.86201 -4.43886 0.180256 1.28443 
244 2 -8.86201 -5.59652 -1.58949 1.2668 
254 2 -8.86201 -3.13444 -1.27581 0.704721 
259 2 -8.86201 -3.16174 -0.259426 -1.543 
333 2 -8.86201 -4.50262 0.726648 -1.3731 
344 2 -8.86201 -4.41638 -1.56841 -0.883836 
361 2 -8.86201 -2.94906 0.528422 0.110973 
268 2 -8.86201 -2.45219 -1.85935 -0.74157 
82 1 8.86201 -3.52572 1.14387 -0.945172 
42 1 8.86201 -1.73763 -1.48636 -1.48845 
290 2 -8.86201 -1.29851 0.829616 1.40173 
7 1 8.86201 0.431804 -0.00215546 -1.42271 
71 1 8.86201 -1.14344 -0.0554974 0.239482 
87 1 8.86201 0.630292 -0.280501 1.57559 
98 1 8.86201 0.248259 -0.648139 0.278356 
119 1 8.86201 -0.255356 0.130049 1.16978 
126 1 8.86201 1.00293 1.15008 1.58917 
127 1 8.86201 -1.18207 -2.03816 0.2589 
138 1 8.86201 -0.492649 -2.13139 -1.50316 
188 1 8.86201 -0.880106 1.32936 -0.94398 
248 2 -8.86201 -0.81257 -1.4341 -0.555927 
274 2 -8.86201 0.723692 -0.927598 -0.648216 
312 2 -8.86201 -1.26542 0.43512 -1.34133 
325 2 -8.86201 0.7327 -2.04028 -0.201947 
373 2 -8.86201 1.54808 -0.046126 0.895736 
393 2 -8.86201 0.0629277 1.40518 -0.54936 
421 2 -8.86201 1.43273 -0.200647 -1.43141 
83 1 8.86201 1.57679 -1.83774 1.24664 
104 1 8.86201 1.57181 -1.26237 -1.38599 
258 2 -8.86201 1.29027 0.90215 -1.48428 
26 1 8.86201 1.837 2.05782 -0.0793483 
185 1 8.86201 0.815187 2.07895 -1.35733 
193 1 8.86201 1.86077 1.01244 0.941614 
411 2 -8.86201 0.845118 2.02194 0.431091 
320 2 -8.86201 5.26792 -1.84056 0.305847 
58 1 8.86201 2.88669 -0.172205 0.233495 
47 1 8.86201 5.48668 0.125253 -1.03388 
49 1 8.86201 4.03973 0.6957 0.292208 
50 1 8.86201 4.6435 -2.08845 1.44971 
52 1 8.86201 5.52615 -1.13315 1.02611 
106 1 8.86201 3.84534 0.968392 -0.986949 
121 1 8.86201 4.87958 -0.42434 0.0906687 
165 1 8.86201 6.34091 1.03237 -1.40562 
217 2 -8.86201 3.53795 -1.55577 0.468626 
220 2 -8.86201 5.25437 0.481565 0.430738 
223 2 -8.86201 6.43509 -1.10037 0.108824 
279 2 -8.86201 3.11961 1.23071 0.0670186 
284 2 -8.86201 2.83727 0.217173 1.41297 
292 2 -8.86201 5.76889 1.64579 0.590603 
314 2 -8.86201 4.9688 1.80126 -1.12014 
342 2 -8.86201 5.08646 -0.778591 -1.50505 
402 2 -8.86201 2.91484 -1.3115 -1.18808 
75 1 8.86201 6.09217 1.99333 -0.897498 
88 1 8.86201 6.16918 -0.172214 0.730747 
273 2 -8.86201 6.22107 0.281366 -0.241203 
420 2 -8.86201 6.75597 -0.393819 -1.5039 
77 1 8.86201 7.92677 0.0628281 1.5826 
89 1 8.86201 8.26903 0.386797 -0.983023 
155 1 8.86201 9.40946 -2.10415 -0.186226 
214 2 -8.86201 7.38645 -1.54032 1.18463 
224 2 -8.86201 9.38742 -0.290512 -1.30847 
236 2 -8.86201 7.29794 0.852422 -1.26618 
237 2 -8.86201 10.2615 0.575374 -1.51869 
240 2 -8.86201 8.4868 -1.8817 -1.34622 
358 2 -8.86201 8.18953 1.02821 1.21903 
381 2 -8.86201 9.57006 0.481123 -0.28775 
170 1 8.86201 10.1927 1.69168 -0.0627493 
181 1 8.86201 9.28916 1.65543 0.716678 
328 2 -8.86201 -8.58683 3.04018 1.14594 
22 1 8.86201 -9.48806 2.28392 1.03032 
55 1 8.86201 -7.12867 3.11332 -0.88931 
60 1 8.86201 -10.055 5.4739 -0.741348 
66 1 8.86201 -10.6594 3.86117 -0.170683 
109 1 8.86201 -8.82996 6.07552 -1.56184 
140 1 8.86201 -7.64462 6.01124 -1.53671 
157 1 8.86201 -8.24077 2.40132 -0.647896 
195 1 8.86201 -9.47801 3.33014 -0.650648 
205 1 8.86201 -7.37053 5.07042 1.55262 
216 2 -8.86201 -7.82165 5.53848 0.109497 
250 2 -8.86201 -6.71052 4.76271 -1.55137 
298 2 -8.86201 -8.36809 3.72842 -1.17414 
388 2 -8.86201 -6.89442 4.67934 0.547682 
249 2 -8.86201 -3.63196 2.55958 -0.471151 
331 2 -8.86201 -4.57127 2.3744 -0.0104366 
341 2 -8.86201 -2.4622 2.70448 -0.598483 
21 1 8.86201 -2.62162 3.79626 0.4618 
33 1 8.86201 -5.3823 3.87657 0.948834 
46 1 8.86201 -2.19228 5.57039 -0.457873 
70 1 8.86201 -3.26573 3.31227 -1.51245 
129 1 8.86201 -6.11137 2.18114 1.43704 
153 1 8.86201 -5.25334 5.77589 -1.12158 
159 1 8.86201 -3.00971 4.58648 -0.0168833 
175 1 8.86201 -4.9868 5.55953 0.730247 
210 1 8.86201 -4.66041 4.45942 -1.31763 
252 2 -8.86201 -5.94251 6.26044 0.378187 
257 2 -8.86201 -4.15015 5.48939 -1.20619 
276 2 -8.86201 -2.96543 3.85334 1.49366 
367 2 -8.86201 -6.40084 3.06868 0.201508 
416 2 -8.86201 -4.30444 3.5787 1.24538 
229 2 -8.86201 -2.38839 5.99245 -1.39914 
394 2 -8.86201 -3.36997 5.54732 0.228733 
204 1 8.86201 -1.66915 2.24862 0.163158 
337 2 -8.86201 -2.07317 4.44898 -1.17385 
20 1 8.86201 -1.64278 5.12674 0.752763 
23 1 8.86201 0.209397 4.05779 -1.12063 
69 1 8.86201 0.517989 5.32937 0.31336 
73 1 8.86201 -0.28678 4.16039 0.383518 
124 1 8.86201 -0.775108 2.63693 -0.316018 
137 1 8.86201 0.71663 2.87593 -0.439174 
234 2 -8.86201 -1.83391 3.90758 1.61693 
246 2 -8.86201 -0.853964 5.12413 -0.181717 
263 2 -8.86201 -1.5193 3.29273 0.141202 
301 2 -8.86201 -0.816234 6.17414 1.25302 
335 2 -8.86201 1.95778 2.24819 -1.33565 
345 2 -8.86201 0.378872 5.72165 -1.06762 
401 2 -8.86201 1.42778 4.61141 -0.931099 
403 2 -8.86201 -1.0473 3.87116 -0.941955 
410 2 -8.86201 1.20598 4.74946 1.3137 
423 2 -8.86201 -0.130171 2.71141 -1.53196 
9 1 8.86201 1.73296 6.20244 1.43112 
354 2 -8.86201 1.64054 5.44587 0.282904 
86 1 8.86201 -1.14088 6.3555 0.128865 
156 1 8.86201 -0.661372 6.18287 -1.12161 
27 1 8.86201 2.26243 3.91721 1.56393 
308 2 -8.86201 2.85399 4.30079 -1.23128 
2 1 8.86201 4.45794 5.11178 0.996817 
31 1 8.86201 2.57022 3.56401 -0.352597 
68 1 8.86201 6.0739 6.34513 -0.273951 
78 1 8.86201 4.87654 2.93775 0.11896 
79 1 8.86201 3.45114 3.44349 -1.54612 
95 1 8.86201 4.05694 3.69802 1.37678 
178 1 8.86201 3.84457 4.08546 -0.648884 
225 2 -8.86201 4.8208 5.08213 -0.236696 
242 2 -8.86201 3.87697 5.36163 -1.5173 
287 2 -8.86201 4.65928 6.3565 0.166941 
362 2 -8.86201 3.93647 2.63465 -0.729452 
372 2 -8.86201 2.56592 2.81533 0.293191 
386 2 -8.86201 4.50779 3.3635 -1.18668 
398 2 -8.86201 6.26599 3.07269 0.444572 
37 1 8.86201 5.80428 2.7689 -1.51704 
150 1 8.86201 5.92956 4.40914 -0.753044 
221 2 -8.86201 5.55374 5.74439 -1.21782 
376 2 -8.86201 4.5251 6.4142 1.57542 
313 2 -8.86201 10.0809 5.08441 -1.2544 
80 1 8.86201 7.48874 4.46313 -1.36411 
81 1 8.86201 7.16478 5.96617 1.08357 
183 1 8.86201 8.36682 3.10999 -0.812687 
206 1 8.86201 9.28178 6.3539 1.44618 
247 2 -8.86201 9.53781 2.17193 -1.01122 
260 2 -8.86201 7.13823 3.49707 -0.72702 
294 2 -8.86201 8.99167 5.38882 0.479314 
295 2 -8.86201 7.17301 5.87134 -1.38326 
318 2 -8.86201 9.48875 2.92949 0.609124 
378 2 -8.86201 9.44141 3.49185 1.41048 
397 2 -8.86201 6.71295 4.91913 0.501461 
65 1 8.86201 8.81325 5.98125 -0.786528 
29 1 8.86201 -8.52672 7.44753 -0.270863 
44 1 8.86201 -6.53426 9.87795 0.219527 
74 1 8.86201 -8.17337 7.41707 1.23419 
76 1 8.86201 -9.36088 9.80635 -1.29929 
116 1 8.86201 -8.10177 10.5163 -1.46565 
133 1 8.86201 -10.5933 8.5348 0.646374 
169 1 8.86201 -9.73157 6.75052 1.37939 
189 1 8.86201 -8.70894 10.441 1.57256 
208 1 8.86201 -9.4519 7.6744 -1.27226 
269 2 -8.86201 -10.4699 10.0181 -1.29546 
352 2 -8.86201 -7.84259 7.43007 -1.36391 
380 2 -8.86201 -8.87963 9.80726 -0.248438 
285 2 -8.86201 -7.18658 8.05826 0.517857 
3 1 8.86201 -3.54268 6.72278 1.4639 
123 1 8.86201 -5.41549 6.92235 1.58973 
131 1 8.86201 -4.56651 7.72922 -0.0638741 
196 1 8.86201 -6.3528 7.23968 0.265624 
13 1 8.86201 -4.21021 9.47784 0.598254 
190 1 8.86201 -4.11986 6.74286 -1.13899 
197 1 8.86201 -4.9155 9.14786 -0.588781 
232 2 -8.86201 -4.86123 8.40769 0.752362 
243 2 -8.86201 -3.56186 7.5675 -1.39496 
264 2 -8.86201 -2.55679 8.97978 0.466586 
265 2 -8.86201 -6.3901 7.78546 -0.842836 
296 2 -8.86201 -3.21161 7.37995 0.612076 
311 2 -8.86201 -5.87503 9.81312 -0.818031 
391 2 -8.86201 -3.5862 8.89037 1.17349 
419 2 -8.86201 -3.69721 9.44375 -0.528155 
57 1 8.86201 0.472529 10.6501 -1.4828 
173 1 8.86201 1.75274 6.64387 -0.74812 
201 1 8.86201 0.0132323 6.80846 0.194891 
6 1 8.86201 1.31407 8.91464 -0.708235 
64 1 8.86201 0.353345 7.04156 -0.874384 
114 1 8.86201 -1.97324 7.10701 0.238615 
135 1 8.86201 -0.236723 8.39434 -0.871919 
239 2 -8.86201 1.22396 7.13552 0.0344738 
303 2 -8.86201 -0.500537 9.75438 -0.112313 
322 2 -8.86201 -0.1527 10.5039 1.43259 
327 2 -8.86201 -0.643617 7.28828 -1.02764 
363 2 -8.86201 -1.69185 7.64039 -0.703421 
407 2 -8.86201 -1.22505 8.82903 -1.41904 
413 2 -8.86201 0.111663 9.43908 -1.12779 
404 2 -8.86201 1.24746 7.55464 -1.3018 
422 2 -8.86201 3.76473 10.3143 -1.35758 
96 1 8.86201 3.78208 6.68105 -1.38205 
97 1 8.86201 3.47981 8.31906 -0.626935 
179 1 8.86201 2.66624 7.2981 -1.41653 
203 1 8.86201 6.38935 7.04402 -1.41219 
209 1 8.86201 2.6284 7.05257 1.21935 
371 2 -8.86201 3.31767 8.83019 1.46447 
399 2 -8.86201 2.33334 9.20903 -1.38804 
415 2 -8.86201 4.66726 8.93841 0.802936 
103 1 8.86201 5.91583 9.44304 -1.25638 
160 1 8.86201 9.34129 6.8733 -0.678459 
48 1 8.86201 6.45232 9.80459 1.58126 
330 2 -8.86201 6.75678 10.0762 0.0320426 
168 1 8.86201 8.44001 9.97947 -0.146158 
186 1 8.86201 8.63726 8.55643 -0.515198 
191 1 8.86201 7.00452 8.17551 0.890334 
271 2 -8.86201 8.23553 8.87422 0.530877 
310 2 -8.86201 8.95259 7.3606 0.169792 
334 2 -8.86201 7.75162 7.08995 -0.547382 
409 2 -8.86201 7.43805 7.21262 1.27927 
ITEM: TIMESTEP
1100
ITEM: NUMBER OF ATOMS
424
ITEM: BOX BOUNDS pp pp ff
-10.7281 10.7281
-10.7281 10.7281
-2.60084 2.60084
ITEM: ATOMS id type q x y z 
10 1 8.86201 -7.84719 -7.89089 0.0259623 
149 1 8.86201 -9.34791 -6.33328 0.439072 
174 1 8.86201 -7.14916 -7.94387 -0.730193 
180 1 8.86201 -6.53832 -9.52466 1.05333 
194 1 8.86201 -9.85814 -6.66522 -1.19749 
199 1 8.86201 -8.00588 -10.088 1.155 
228 2 -8.86201 -10.4431 -6.8606 -0.193069 
282 2 -8.86201 -6.78509 -10.6353 1.63839 
288 2 -8.86201 -6.63389 -6.60697 -0.724009 
315 2 -8.86201 -7.3677 -9.83222 -1.18793 
338 2 -8.86201 -10.0982 -10.6144 -0.642228 
346 2 -8.86201 -8.63481 -6.91096 -0.920917 
395 2 -8.86201 -8.01406 -9.41631 0.436867 
424 2 -8.86201 -6.71419 -8.68185 -1.54768 
8 1 8.86201 -3.84048 -8.06424 0.437763 
30 1 8.86201 -2.77871 -6.85755 -1.40575 
51 1 8.86201 -6.42794 -10.6991 -0.509148 
61 1 8.86201 -3.9634 -8.9899 -0.855192 
108 1 8.86201 -3.92125 -7.26087 -1.03258 
117 1 8.86201 -3.42282 -8.7437 1.34263 
212 1 8.86201 -4.69328 -8.63758 1.19208 
238 2 -8.86201 -5.01316 -8.92368 -0.823086 
291 2 -8.86201 -5.14398 -10.016 1.54056 
299 2 -8.86201 -3.2182 -9.94907 0.414175 
317 2 -8.86201 -3.72438 -10.2338 -1.33843 
360 2 -8.86201 -5.15733 -8.86819 0.203495 
383 2 -8.86201 -5.96389 -8.53077 0.864446 
412 2 -8.86201 -5.93206 -9.54718 -0.52093 
417 2 -8.86201 -3.82092 -7.81736 1.51492 
14 1 8.86201 -2.33574 -7.65823 1.14103 
343 2 -8.86201 -2.44006 -7.93916 -1.24763 
281 2 -8.86201 -2.75495 -7.45378 -0.156708 
213 2 -8.86201 -1.93111 -9.27687 -1.16462 
300 2 -8.86201 -0.433321 -9.76819 -1.58232 
18 1 8.86201 -0.979394 -7.9709 -0.86342 
53 1 8.86201 1.41476 -8.97473 -1.41225 
67 1 8.86201 0.73307 -9.852 1.56604 
158 1 8.86201 -2.02093 -8.86789 0.196488 
172 1 8.86201 -0.653819 -6.73416 -1.14002 
177 1 8.86201 -0.632334 -9.34618 -0.275213 
235 2 -8.86201 0.772712 -7.75732 -1.57956 
289 2 -8.86201 1.2126 -9.5892 0.63455 
302 2 -8.86201 -0.315235 -10.3661 -0.392925 
336 2 -8.86201 2.00293 -8.79943 -0.649608 
356 2 -8.86201 -0.486034 -8.06508 0.198711 
406 2 -8.86201 -0.957159 -9.02058 1.34155 
54 1 8.86201 1.51327 -7.85291 0.587265 
99 1 8.86201 1.2731 -10.125 -1.49051 
277 2 -8.86201 1.43325 -7.04374 1.62334 
382 2 -8.86201 1.85539 -7.37882 -0.494987 
230 2 -8.86201 1.31255 -6.72128 -1.26651 
414 2 -8.86201 0.819821 -10.4742 -0.0544184 
59 1 8.86201 3.18129 -9.99011 -1.37019 
266 2 -8.86201 2.6952 -6.94194 0.790435 
15 1 8.86201 4.30446 -6.97267 1.23979 
28 1 8.86201 2.615 -7.68188 -1.29223 
35 1 8.86201 3.37701 -8.78175 0.366251 
43 1 8.86201 5.81535 -7.47873 0.371953 
85 1 8.86201 4.97335 -8.33754 0.674739 
134 1 8.86201 5.42163 -10.228 0.471383 
184 1 8.86201 3.71576 -7.86837 1.40109 
253 2 -8.86201 3.21825 -8.68017 -1.2999 
256 2 -8.86201 6.46293 -9.1566 1.33813 
305 2 -8.86201 3.85062 -7.19413 0.271738 
329 2 -8.86201 4.44836 -7.71155 -0.566236 
353 2 -8.86201 4.82775 -7.98426 1.59413 
359 2 -8.86201 5.28571 -9.40411 -0.230534 
369 2 -8.86201 5.751 -7.27133 -1.50174 
148 1 8.86201 5.92517 -8.72582 -1.44384 
198 1 8.86201 3.23871 -6.73864 -1.40789 
200 1 8.86201 5.28675 -10.5069 -0.805956 
231 2 -8.86201 9.32302 -7.38049 -0.65512 
63 1 8.86201 7.23984 -9.71047 -1.16553 
39 1 8.86201 6.44677 -10.1525 -0.389722 
100 1 8.86201 9.47715 -9.0467 -0.194754 
122 1 8.86201 8.52608 -7.79984 0.273431 
211 1 8.86201 6.50546 -8.01426 1.14505 
215 2 -8.86201 7.96857 -7.25205 -1.2862 
297 2 -8.86201 8.82918 -10.1152 -1.37491 
321 2 -8.86201 8.05346 -9.56597 -0.372463 
405 2 -8.86201 8.85553 -10.2649 1.51877 
408 2 -8.86201 10.7238 -8.75006 -0.746179 
113 1 8.86201 6.98286 -6.63356 -1.35007 
379 2 -8.86201 6.86092 -6.75558 0.129717 
226 2 -8.86201 -7.34403 -6.28823 0.0102541 
16 1 8.86201 -10.439 -4.87526 0.0168548 
24 1 8.86201 -6.83822 -4.52316 -1.15394 
45 1 8.86201 -7.71508 -5.66252 1.61725 
93 1 8.86201 -7.61774 -6.08472 -1.20262 
94 1 8.86201 -7.59941 -3.29466 0.96092 
102 1 8.86201 -8.80754 -2.6104 -0.968831 
111 1 8.86201 -9.87553 -3.9297 1.52686 
112 1 8.86201 -6.40496 -2.52114 1.54801 
146 1 8.86201 -9.61717 -2.86012 -0.0707838 
151 1 8.86201 -7.28318 -4.5926 0.0272384 
219 2 -8.86201 -8.6786 -5.27599 0.0159311 
255 2 -8.86201 -8.90381 -5.63867 -1.27501 
261 2 -8.86201 -8.75627 -3.99052 1.15892 
262 2 -8.86201 -7.47983 -3.44045 -0.265299 
270 2 -8.86201 -9.83305 -5.84417 1.38275 
272 2 -8.86201 -10.2221 -5.70222 -0.634393 
351 2 -8.86201 -6.28142 -5.52733 -1.41382 
384 2 -8.86201 -8.47157 -2.52995 0.321721 
400 2 -8.86201 -9.84441 -3.84193 -0.798401 
62 1 8.86201 -6.55382 -2.59219 -0.132108 
17 1 8.86201 -2.92923 -6.12913 0.942468 
5 1 8.86201 -5.485 -6.42814 -1.43241 
11 1 8.86201 -4.25546 -3.53711 -0.76349 
25 1 8.86201 -5.58866 -3.30674 -0.528612 
34 1 8.86201 -5.34381 -6.14198 1.51419 
40 1 8.86201 -3.47506 -2.77943 -1.48651 
84 1 8.86201 -2.79779 -5.68089 -1.59515 
92 1 8.86201 -4.44324 -6.25754 -0.518194 
154 1 8.86201 -5.13071 -5.12437 1.33633 
283 2 -8.86201 -4.42296 -5.42602 0.470633 
306 2 -8.86201 -6.33269 -2.69497 -1.05309 
309 2 -8.86201 -3.07022 -5.66095 -0.367556 
316 2 -8.86201 -5.36418 -5.42018 -0.190242 
324 2 -8.86201 -5.28793 -2.44652 0.26826 
375 2 -8.86201 -2.94861 -3.39779 -0.3024 
392 2 -8.86201 -6.55982 -5.46911 1.58853 
38 1 8.86201 -2.47398 -4.21038 -0.602793 
161 1 8.86201 -4.21705 -2.67946 0.0361263 
218 2 -8.86201 0.519167 -5.99071 1.13131 
370 2 -8.86201 -1.3798 -3.43258 0.446351 
139 1 8.86201 1.27387 -5.56483 1.50715 
142 1 8.86201 -0.681196 -3.38546 1.45323 
144 1 8.86201 0.0936547 -4.68619 -0.392645 
152 1 8.86201 -0.391563 -5.96203 0.59041 
166 1 8.86201 1.73763 -3.08852 1.45169 
176 1 8.86201 -0.699619 -4.82453 -1.46251 
251 2 -8.86201 -1.3684 -5.13659 -0.389516 
267 2 -8.86201 1.89295 -5.21816 -1.43911 
307 2 -8.86201 0.523084 -4.62465 -1.41977 
349 2 -8.86201 1.43936 -4.64801 -0.639985 
355 2 -8.86201 0.208584 -2.99364 0.58948 
365 2 -8.86201 1.23618 -2.46403 -1.31326 
374 2 -8.86201 -1.3538 -3.04248 -1.53699 
389 2 -8.86201 -1.7667 -6.07575 -1.37529 
319 2 -8.86201 -1.41887 -2.26225 1.56796 
41 1 8.86201 -0.191488 -3.7829 -1.47786 
202 1 8.86201 2.09021 -3.28302 -0.568018 
390 2 -8.86201 -1.53897 -2.23476 -0.783729 
323 2 -8.86201 5.87345 -6.01314 0.818633 
227 2 -8.86201 2.24299 -5.19699 0.486969 
326 2 -8.86201 3.22562 -3.62811 -0.0243241 
105 1 8.86201 4.67109 -2.85066 0.460448 
118 1 8.86201 4.18417 -3.60737 -0.874258 
125 1 8.86201 5.94516 -3.53509 0.399326 
128 1 8.86201 4.8192 -4.20206 1.15321 
136 1 8.86201 5.57819 -4.83157 -1.28412 
141 1 8.86201 3.30458 -4.81726 0.337529 
145 1 8.86201 2.35442 -6.20942 -0.409386 
147 1 8.86201 5.33188 -2.16758 -0.788413 
192 1 8.86201 3.17501 -3.58675 -1.21116 
293 2 -8.86201 4.99697 -4.3567 0.0708026 
340 2 -8.86201 4.53656 -4.93011 -1.50705 
348 2 -8.86201 5.03157 -6.43838 -0.90446 
366 2 -8.86201 2.91842 -2.67006 1.0957 
357 2 -8.86201 6.3258 -2.58156 1.47037 
32 1 8.86201 8.41938 -6.24932 1.31977 
163 1 8.86201 9.85709 -5.44387 0.777039 
222 2 -8.86201 7.41209 -2.35414 -0.126196 
286 2 -8.86201 7.17032 -3.03853 -1.49226 
1 1 8.86201 10.119 -3.49719 -0.793221 
36 1 8.86201 8.10157 -5.98218 -0.331111 
72 1 8.86201 10.2739 -5.70108 -0.166608 
132 1 8.86201 8.08066 -4.27029 -0.714717 
164 1 8.86201 9.03932 -3.44391 0.118853 
187 1 8.86201 7.20494 -3.94703 -0.0409099 
245 2 -8.86201 7.55879 -5.33628 0.934293 
278 2 -8.86201 8.13161 -3.90041 1.59136 
304 2 -8.86201 8.85614 -3.56955 -0.976192 
332 2 -8.86201 9.14123 -5.29466 1.52363 
347 2 -8.86201 8.67198 -5.18514 0.358932 
385 2 -8.86201 10.5115 -4.75356 -0.951651 
12 1 8.86201 -6.67942 0.177147 0.0907728 
19 1 8.86201 -8.19755 -0.586908 -0.226763 
90 1 8.86201 -10.2356 -1.17319 -1.22864 
110 1 8.86201 -8.77035 0.865881 0.957276 
130 1 8.86201 -8.41335 -0.744439 1.11755 
143 1 8.86201 -7.86016 1.34644 -1.03557 
167 1 8.86201 -7.77617 0.147888 1.22267 
275 2 -8.86201 -10.0225 0.316413 1.54939 
280 2 -8.86201 -9.7372 -0.781536 -0.0377722 
339 2 -8.86201 -8.82897 -1.41274 -1.21667 
364 2 -8.86201 -7.96624 1.65116 0.471774 
368 2 -8.86201 -8.14715 0.490809 0.236058 
418 2 -8.86201 -7.25321 -0.742677 -0.695124 
377 2 -8.86201 -6.50864 1.115 -1.29808 
171 1 8.86201 -9.63624 1.55311 -1.52774 
350 2 -8.86201 -7.18805 2.07037 -1.4982 
387 2 -8.86201 -9.37371 0.752391 -0.801459 
396 2 -8.86201 -5.65952 -0.746523 0.16304 
207 1 8.86201 -3.40707 -1.43719 -1.0861 
233 2 -8.86201 -3.7895 -1.69167 1.40698 
4 1 8.86201 -6.21463 -0.377981 1.11607 
56 1 8.86201 -2.81961 2.16807 0.895273 
91 1 8.86201 -4.67139 0.486271 -0.233182 
101 1 8.86201 -5.36798 0.132541 -1.32479 
107 1 8.86201 -3.5303 -0.504873 0.31318 
115 1 8.86201 -5.38386 2.18656 -1.56544 
120 1 8.86201 -3.94155 1.96537 -1.45282 
162 1 8.86201 -6.3472 0.79077 1.17269 
182 1 8.86201 -2.32301 -0.765152 -0.16839 
241 2 -8.86201 -4.53714 0.1471 1.32198 
244 2 -8.86201 -5.64106 -1.56365 1.07494 
254 2 -8.86201 -3.10624 -1.24122 0.846747 
259 2 -8.86201 -3.06989 -0.115439 -1.56257 
333 2 -8.86201 -4.64485 0.829648 -1.36465 
344 2 -8.86201 -4.36497 -1.74125 -0.780361 
361 2 -8.86201 -2.9754 0.638911 0.31692 
268 2 -8.86201 -2.48911 -1.68255 -0.614552 
82 1 8.86201 -3.45959 1.19132 -0.811933 
42 1 8.86201 -1.74021 -1.54297 -1.62056 
290 2 -8.86201 -1.13007 0.891229 1.46007 
7 1 8.86201 0.438612 -0.14446 -1.29054 
71 1 8.86201 -1.17497 -0.028734 0.26533 
87 1 8.86201 0.6774 -0.370688 1.46528 
98 1 8.86201 0.215489 -0.653262 0.467114 
119 1 8.86201 -0.403745 0.145653 1.23345 
126 1 8.86201 1.02242 1.23524 1.4137 
127 1 8.86201 -1.26789 -2.14643 0.253405 
138 1 8.86201 -0.414256 -2.16322 -1.38394 
188 1 8.86201 -0.848562 1.4039 -0.976785 
248 2 -8.86201 -0.757944 -1.51892 -0.405845 
274 2 -8.86201 0.758897 -1.01622 -0.534715 
312 2 -8.86201 -1.41169 0.551169 -1.25849 
325 2 -8.86201 0.65439 -2.17028 -0.093308 
373 2 -8.86201 1.55729 -0.174772 1.03339 
393 2 -8.86201 0.247866 1.37532 -0.330297 
421 2 -8.86201 1.58601 -0.163955 -1.48104 
83 1 8.86201 1.49246 -1.95805 1.42328 
104 1 8.86201 1.52821 -1.17752 -1.2824 
258 2 -8.86201 1.21867 0.84393 -1.51164 
26 1 8.86201 1.7604 2.11268 0.0331282 
185 1 8.86201 0.785987 2.05063 -1.34454 
193 1 8.86201 1.99164 0.81014 1.07256 
411 2 -8.86201 0.934745 1.85283 0.545732 
320 2 -8.86201 5.34101 -1.9259 0.392812 
58 1 8.86201 3.04367 -0.177007 0.242006 
47 1 8.86201 5.56442 0.112624 -1.05058 
49 1 8.86201 4.02849 0.64548 0.357265 
50 1 8.86201 4.71105 -2.17579 1.26523 
52 1 8.86201 5.47345 -1.11367 1.1795 
106 1 8.86201 3.8396 0.885123 -1.06706 
121 1 8.86201 5.03963 -0.502594 0.0937284 
165 1 8.86201 6.25711 1.22765 -1.47219 
217 2 -8.86201 3.61249 -1.47702 0.51382 
220 2 -8.86201 5.27672 0.449597 0.510967 
223 2 -8.86201 6.4105 -1.0491 0.20296 
279 2 -8.86201 3.10921 1.14065 0.328947 
284 2 -8.86201 2.86762 0.123576 1.58745 
292 2 -8.86201 5.77045 1.68881 0.747843 
314 2 -8.86201 4.98764 1.78183 -0.981681 
342 2 -8.86201 5.16172 -0.825958 -1.47401 
402 2 -8.86201 3.00287 -1.28837 -1.22103 
75 1 8.86201 6.13209 2.05397 -0.840406 
88 1 8.86201 6.24974 -0.0759412 0.839312 
273 2 -8.86201 6.21849 0.349543 -0.199397 
420 2 -8.86201 6.76276 -0.324086 -1.48066 
77 1 8.86201 7.80796 -0.0202849 1.5562 
89 1 8.86201 8.30376 0.396595 -1.03166 
155 1 8.86201 9.42038 -2.21803 -0.130188 
214 2 -8.86201 7.38221 -1.47558 0.99936 
224 2 -8.86201 9.42755 -0.188426 -1.22736 
236 2 -8.86201 7.30678 0.850614 -1.08641 
237 2 -8.86201 10.4232 0.644591 -1.43261 
240 2 -8.86201 8.63945 -1.9383 -1.28058 
358 2 -8.86201 8.38534 0.985745 1.31008 
381 2 -8.86201 9.7552 0.435914 -0.188406 
170 1 8.86201 10.0034 1.47839 -0.0662805 
181 1 8.86201 9.43615 1.58151 0.742116 
328 2 -8.86201 -8.68642 3.15115 1.1823 
22 1 8.86201 -9.49083 2.27133 1.15195 
55 1 8.86201 -7.02197 3.06807 -0.716394 
60 1 8.86201 -10.1063 5.4888 -0.769291 
66 1 8.86201 10.6591 3.82104 -0.0837274 
109 1 8.86201 -8.91767 6.20868 -1.5053 
140 1 8.86201 -7.69829 6.05072 -1.47119 
157 1 8.86201 -8.27501 2.26571 -0.728477 
195 1 8.86201 -9.56819 3.24058 -0.656229 
205 1 8.86201 -7.4736 5.01118 1.56655 
216 2 -8.86201 -7.86899 5.46951 0.154126 
250 2 -8.86201 -6.53899 4.58257 -1.46762 
298 2 -8.86201 -8.5757 3.63884 -1.28827 
388 2 -8.86201 -6.91643 4.81521 0.704261 
249 2 -8.86201 -3.72457 2.51356 -0.508024 
331 2 -8.86201 -4.59298 2.38293 0.0586462 
341 2 -8.86201 -2.43292 2.69942 -0.482882 
21 1 8.86201 -2.4648 3.74153 0.624855 
33 1 8.86201 -5.42247 4.03081 1.05176 