LAMMPS data file
424 atoms
2 atom types
-16.1601 16.1601 xlo xhi
-16.1601 16.1601 ylo yhi
-3.16456 3.16456 zlo zhi
 
Atoms
 
1   1   10.87657545   -15.49869063   -15.49869063   -2.503164557
2   1   10.87657545   -15.49869063   -15.49869063   -1.180379747
3   1   10.87657545   -15.49869063   -15.49869063   0.1424050633
4   1   10.87657545   -15.49869063   -15.49869063   1.465189873
5   1   10.87657545   -15.49869063   -14.17590582   -2.503164557
6   1   10.87657545   -15.49869063   -14.17590582   -1.180379747
7   1   10.87657545   -15.49869063   -14.17590582   0.1424050633
8   1   10.87657545   -15.49869063   -14.17590582   1.465189873
9   1   10.87657545   -15.49869063   -12.85312101   -2.503164557
10   1   10.87657545   -15.49869063   -12.85312101   -1.180379747
11   1   10.87657545   -15.49869063   -12.85312101   0.1424050633
12   1   10.87657545   -15.49869063   -12.85312101   1.465189873
13   1   10.87657545   -15.49869063   -11.5303362   -2.503164557
14   1   10.87657545   -15.49869063   -11.5303362   -1.180379747
15   1   10.87657545   -15.49869063   -11.5303362   0.1424050633
16   1   10.87657545   -15.49869063   -11.5303362   1.465189873
17   1   10.87657545   -15.49869063   -10.20755139   -2.503164557
18   1   10.87657545   -15.49869063   -10.20755139   -1.180379747
19   1   10.87657545   -15.49869063   -10.20755139   0.1424050633
20   1   10.87657545   -15.49869063   -10.20755139   1.465189873
21   1   10.87657545   -15.49869063   -8.884766581   -2.503164557
22   1   10.87657545   -15.49869063   -8.884766581   -1.180379747
23   1   10.87657545   -15.49869063   -8.884766581   0.1424050633
24   1   10.87657545   -15.49869063   -8.884766581   1.465189873
25   1   10.87657545   -15.49869063   -7.561981771   -2.503164557
26   1   10.87657545   -15.49869063   -7.561981771   -1.180379747
27   1   10.87657545   -15.49869063   -7.561981771   0.1424050633
28   1   10.87657545   -15.49869063   -7.561981771   1.465189873
29   1   10.87657545   -15.49869063   -6.239196961   -2.503164557
30   1   10.87657545   -15.49869063   -6.239196961   -1.180379747
31   1   10.87657545   -15.49869063   -6.239196961   0.1424050633
32   1   10.87657545   -15.49869063   -6.239196961   1.465189873
33   1   10.87657545   -15.49869063   -4.91641215   -2.503164557
34   1   10.87657545   -15.49869063   -4.91641215   -1.180379747
35   1   10.87657545   -15.49869063   -4.91641215   0.1424050633
36   1   10.87657545   -15.49869063   -4.91641215   1.465189873
37   1   10.87657545   -15.49869063   -3.59362734   -2.503164557
38   1   10.87657545   -15.49869063   -3.59362734   -1.180379747
39   1   10.87657545   -15.49869063   -3.59362734   0.1424050633
40   1   10.87657545   -15.49869063   -3.59362734   1.465189873
41   1   10.87657545   -15.49869063   -2.27084253   -2.503164557
42   1   10.87657545   -15.49869063   -2.27084253   -1.180379747
43   1   10.87657545   -15.49869063   -2.27084253   0.1424050633
44   1   10.87657545   -15.49869063   -2.27084253   1.465189873
45   1   10.87657545   -15.49869063   -0.94805772   -2.503164557
46   1   10.87657545   -15.49869063   -0.94805772   -1.180379747
47   1   10.87657545   -15.49869063   -0.94805772   0.1424050633
48   1   10.87657545   -15.49869063   -0.94805772   1.465189873
49   1   10.87657545   -15.49869063   0.3747270901   -2.503164557
50   1   10.87657545   -15.49869063   0.3747270901   -1.180379747
51   1   10.87657545   -15.49869063   0.3747270901   0.1424050633
52   1   10.87657545   -15.49869063   0.3747270901   1.465189873
53   1   10.87657545   -15.49869063   1.6975119   -2.503164557
54   1   10.87657545   -15.49869063   1.6975119   -1.180379747
55   1   10.87657545   -15.49869063   1.6975119   0.1424050633
56   1   10.87657545   -15.49869063   1.6975119   1.465189873
57   1   10.87657545   -15.49869063   3.02029671   -2.503164557
58   1   10.87657545   -15.49869063   3.02029671   -1.180379747
59   1   10.87657545   -15.49869063   3.02029671   0.1424050633
60   1   10.87657545   -15.49869063   3.02029671   1.465189873
61   1   10.87657545   -15.49869063   4.34308152   -2.503164557
62   1   10.87657545   -15.49869063   4.34308152   -1.180379747
63   1   10.87657545   -15.49869063   4.34308152   0.1424050633
64   1   10.87657545   -15.49869063   4.34308152   1.465189873
65   1   10.87657545   -15.49869063   5.665866331   -2.503164557
66   1   10.87657545   -15.49869063   5.665866331   -1.180379747
67   1   10.87657545   -15.49869063   5.665866331   0.1424050633
68   1   10.87657545   -15.49869063   5.665866331   1.465189873
69   1   10.87657545   -15.49869063   6.988651141   -2.503164557
70   1   10.87657545   -15.49869063   6.988651141   -1.180379747
71   1   10.87657545   -15.49869063   6.988651141   0.1424050633
72   1   10.87657545   -15.49869063   6.988651141   1.465189873
73   1   10.87657545   -15.49869063   8.311435951   -2.503164557
74   1   10.87657545   -15.49869063   8.311435951   -1.180379747
75   1   10.87657545   -15.49869063   8.311435951   0.1424050633
76   1   10.87657545   -15.49869063   8.311435951   1.465189873
77   1   10.87657545   -15.49869063   9.634220761   -2.503164557
78   1   10.87657545   -15.49869063   9.634220761   -1.180379747
79   1   10.87657545   -15.49869063   9.634220761   0.1424050633
80   1   10.87657545   -15.49869063   9.634220761   1.465189873
81   1   10.87657545   -15.49869063   10.95700557   -2.503164557
82   1   10.87657545   -15.49869063   10.95700557   -1.180379747
83   1   10.87657545   -15.49869063   10.95700557   0.1424050633
84   1   10.87657545   -15.49869063   10.95700557   1.465189873
85   1   10.87657545   -15.49869063   12.27979038   -2.503164557
86   1   10.87657545   -15.49869063   12.27979038   -1.180379747
87   1   10.87657545   -15.49869063   12.27979038   0.1424050633
88   1   10.87657545   -15.49869063   12.27979038   1.465189873
89   1   10.87657545   -15.49869063   13.60257519   -2.503164557
90   1   10.87657545   -15.49869063   13.60257519   -1.180379747
91   1   10.87657545   -15.49869063   13.60257519   0.1424050633
92   1   10.87657545   -15.49869063   13.60257519   1.465189873
93   1   10.87657545   -15.49869063   14.92536   -2.503164557
94   1   10.87657545   -15.49869063   14.92536   -1.180379747
95   1   10.87657545   -15.49869063   14.92536   0.1424050633
96   1   10.87657545   -15.49869063   14.92536   1.465189873
97   1   10.87657545   -14.17590582   -15.49869063   -2.503164557
98   1   10.87657545   -14.17590582   -15.49869063   -1.180379747
99   1   10.87657545   -14.17590582   -15.49869063   0.1424050633
100   1   10.87657545   -14.17590582   -15.49869063   1.465189873
101   1   10.87657545   -14.17590582   -14.17590582   -2.503164557
102   1   10.87657545   -14.17590582   -14.17590582   -1.180379747
103   1   10.87657545   -14.17590582   -14.17590582   0.1424050633
104   1   10.87657545   -14.17590582   -14.17590582   1.465189873
105   1   10.87657545   -14.17590582   -12.85312101   -2.503164557
106   1   10.87657545   -14.17590582   -12.85312101   -1.180379747
107   1   10.87657545   -14.17590582   -12.85312101   0.1424050633
108   1   10.87657545   -14.17590582   -12.85312101   1.465189873
109   1   10.87657545   -14.17590582   -11.5303362   -2.503164557
110   1   10.87657545   -14.17590582   -11.5303362   -1.180379747
111   1   10.87657545   -14.17590582   -11.5303362   0.1424050633
112   1   10.87657545   -14.17590582   -11.5303362   1.465189873
113   1   10.87657545   -14.17590582   -10.20755139   -2.503164557
114   1   10.87657545   -14.17590582   -10.20755139   -1.180379747
115   1   10.87657545   -14.17590582   -10.20755139   0.1424050633
116   1   10.87657545   -14.17590582   -10.20755139   1.465189873
117   1   10.87657545   -14.17590582   -8.884766581   -2.503164557
118   1   10.87657545   -14.17590582   -8.884766581   -1.180379747
119   1   10.87657545   -14.17590582   -8.884766581   0.1424050633
120   1   10.87657545   -14.17590582   -8.884766581   1.465189873
121   1   10.87657545   -14.17590582   -7.561981771   -2.503164557
122   1   10.87657545   -14.17590582   -7.561981771   -1.180379747
123   1   10.87657545   -14.17590582   -7.561981771   0.1424050633
124   1   10.87657545   -14.17590582   -7.561981771   1.465189873
125   1   10.87657545   -14.17590582   -6.239196961   -2.503164557
126   1   10.87657545   -14.17590582   -6.239196961   -1.180379747
127   1   10.87657545   -14.17590582   -6.239196961   0.1424050633
128   1   10.87657545   -14.17590582   -6.239196961   1.465189873
129   1   10.87657545   -14.17590582   -4.91641215   -2.503164557
130   1   10.87657545   -14.17590582   -4.91641215   -1.180379747
131   1   10.87657545   -14.17590582   -4.91641215   0.1424050633
132   1   10.87657545   -14.17590582   -4.91641215   1.465189873
133   1   10.87657545   -14.17590582   -3.59362734   -2.503164557
134   1   10.87657545   -14.17590582   -3.59362734   -1.180379747
135   1   10.87657545   -14.17590582   -3.59362734   0.1424050633
136   1   10.87657545   -14.17590582   -3.59362734   1.465189873
137   1   10.87657545   -14.17590582   -2.27084253   -2.503164557
138   1   10.87657545   -14.17590582   -2.27084253   -1.180379747
139   1   10.87657545   -14.17590582   -2.27084253   0.1424050633
140   1   10.87657545   -14.17590582   -2.27084253   1.465189873
141   1   10.87657545   -14.17590582   -0.94805772   -2.503164557
142   1   10.87657545   -14.17590582   -0.94805772   -1.180379747
143   1   10.87657545   -14.17590582   -0.94805772   0.1424050633
144   1   10.87657545   -14.17590582   -0.94805772   1.465189873
145   1   10.87657545   -14.17590582   0.3747270901   -2.503164557
146   1   10.87657545   -14.17590582   0.3747270901   -1.180379747
147   1   10.87657545   -14.17590582   0.3747270901   0.1424050633
148   1   10.87657545   -14.17590582   0.3747270901   1.465189873
149   1   10.87657545   -14.17590582   1.6975119   -2.503164557
150   1   10.87657545   -14.17590582   1.6975119   -1.180379747
151   1   10.87657545   -14.17590582   1.6975119   0.1424050633
152   1   10.87657545   -14.17590582   1.6975119   1.465189873
153   1   10.87657545   -14.17590582   3.02029671   -2.503164557
154   1   10.87657545   -14.17590582   3.02029671   -1.180379747
155   1   10.87657545   -14.17590582   3.02029671   0.1424050633
156   1   10.87657545   -14.17590582   3.02029671   1.465189873
157   1   10.87657545   -14.17590582   4.34308152   -2.503164557
158   1   10.87657545   -14.17590582   4.34308152   -1.180379747
159   1   10.87657545   -14.17590582   4.34308152   0.1424050633
160   1   10.87657545   -14.17590582   4.34308152   1.465189873
161   1   10.87657545   -14.17590582   5.665866331   -2.503164557
162   1   10.87657545   -14.17590582   5.665866331   -1.180379747
163   1   10.87657545   -14.17590582   5.665866331   0.1424050633
164   1   10.87657545   -14.17590582   5.665866331   1.465189873
165   1   10.87657545   -14.17590582   6.988651141   -2.503164557
166   1   10.87657545   -14.17590582   6.988651141   -1.180379747
167   1   10.87657545   -14.17590582   6.988651141   0.1424050633
168   1   10.87657545   -14.17590582   6.988651141   1.465189873
169   1   10.87657545   -14.17590582   8.311435951   -2.503164557
170   1   10.87657545   -14.17590582   8.311435951   -1.180379747
171   1   10.87657545   -14.17590582   8.311435951   0.1424050633
172   1   10.87657545   -14.17590582   8.311435951   1.465189873
173   1   10.87657545   -14.17590582   9.634220761   -2.503164557
174   1   10.87657545   -14.17590582   9.634220761   -1.180379747
175   1   10.87657545   -14.17590582   9.634220761   0.1424050633
176   1   10.87657545   -14.17590582   9.634220761   1.465189873
177   1   10.87657545   -14.17590582   10.95700557   -2.503164557
178   1   10.87657545   -14.17590582   10.95700557   -1.180379747
179   1   10.87657545   -14.17590582   10.95700557   0.1424050633
180   1   10.87657545   -14.17590582   10.95700557   1.465189873
181   1   10.87657545   -14.17590582   12.27979038   -2.503164557
182   1   10.87657545   -14.17590582   12.27979038   -1.180379747
183   1   10.87657545   -14.17590582   12.27979038   0.1424050633
184   1   10.87657545   -14.17590582   12.27979038   1.465189873
185   1   10.87657545   -14.17590582   13.60257519   -2.503164557
186   1   10.87657545   -14.17590582   13.60257519   -1.180379747
187   1   10.87657545   -14.17590582   13.60257519   0.1424050633
188   1   10.87657545   -14.17590582   13.60257519   1.465189873
189   1   10.87657545   -14.17590582   14.92536   -2.503164557
190   1   10.87657545   -14.17590582   14.92536   -1.180379747
191   1   10.87657545   -14.17590582   14.92536   0.1424050633
192   1   10.87657545   -14.17590582   14.92536   1.465189873
193   1   10.87657545   -12.85312101   -15.49869063   -2.503164557
194   1   10.87657545   -12.85312101   -15.49869063   -1.180379747
195   1   10.87657545   -12.85312101   -15.49869063   0.1424050633
196   1   10.87657545   -12.85312101   -15.49869063   1.465189873
197   1   10.87657545   -12.85312101   -14.17590582   -2.503164557
198   1   10.87657545   -12.85312101   -14.17590582   -1.180379747
199   1   10.87657545   -12.85312101   -14.17590582   0.1424050633
200   1   10.87657545   -12.85312101   -14.17590582   1.465189873
201   1   10.87657545   -12.85312101   -12.85312101   -2.503164557
202   1   10.87657545   -12.85312101   -12.85312101   -1.180379747
203   1   10.87657545   -12.85312101   -12.85312101   0.1424050633
204   1   10.87657545   -12.85312101   -12.85312101   1.465189873
205   1   10.87657545   -12.85312101   -11.5303362   -2.503164557
206   1   10.87657545   -12.85312101   -11.5303362   -1.180379747
207   1   10.87657545   -12.85312101   -11.5303362   0.1424050633
208   1   10.87657545   -12.85312101   -11.5303362   1.465189873
209   1   10.87657545   -12.85312101   -10.20755139   -2.503164557
210   1   10.87657545   -12.85312101   -10.20755139   -1.180379747
211   1   10.87657545   -12.85312101   -10.20755139   0.1424050633
212   1   10.87657545   -12.85312101   -10.20755139   1.465189873
213   2   -10.87657545   -12.85312101   -8.884766581   -2.503164557
214   2   -10.87657545   -12.85312101   -8.884766581   -1.180379747
215   2   -10.87657545   -12.85312101   -8.884766581   0.1424050633
216   2   -10.87657545   -12.85312101   -8.884766581   1.465189873
217   2   -10.87657545   -12.85312101   -7.561981771   -2.503164557
218   2   -10.87657545   -12.85312101   -7.561981771   -1.180379747
219   2   -10.87657545   -12.85312101   -7.561981771   0.1424050633
220   2   -10.87657545   -12.85312101   -7.561981771   1.465189873
221   2   -10.87657545   -12.85312101   -6.239196961   -2.503164557
222   2   -10.87657545   -12.85312101   -6.239196961   -1.180379747
223   2   -10.87657545   -12.85312101   -6.239196961   0.1424050633
224   2   -10.87657545   -12.85312101   -6.239196961   1.465189873
225   2   -10.87657545   -12.85312101   -4.91641215   -2.503164557
226   2   -10.87657545   -12.85312101   -4.91641215   -1.180379747
227   2   -10.87657545   -12.85312101   -4.91641215   0.1424050633
228   2   -10.87657545   -12.85312101   -4.91641215   1.465189873
229   2   -10.87657545   -12.85312101   -3.59362734   -2.503164557
230   2   -10.87657545   -12.85312101   -3.59362734   -1.180379747
231   2   -10.87657545   -12.85312101   -3.59362734   0.1424050633
232   2   -10.87657545   -12.85312101   -3.59362734   1.465189873
233   2   -10.87657545   -12.85312101   -2.27084253   -2.503164557
234   2   -10.87657545   -12.85312101   -2.27084253   -1.180379747
235   2   -10.87657545   -12.85312101   -2.27084253   0.1424050633
236   2   -10.87657545   -12.85312101   -2.27084253   1.465189873
237   2   -10.87657545   -12.85312101   -0.94805772   -2.503164557
238   2   -10.87657545   -12.85312101   -0.94805772   -1.180379747
239   2   -10.87657545   -12.85312101   -0.94805772   0.1424050633
240   2   -10.87657545   -12.85312101   -0.94805772   1.465189873
241   2   -10.87657545   -12.85312101   0.3747270901   -2.503164557
242   2   -10.87657545   -12.85312101   0.3747270901   -1.180379747
243   2   -10.87657545   -12.85312101   0.3747270901   0.1424050633
244   2   -10.87657545   -12.85312101   0.3747270901   1.465189873
245   2   -10.87657545   -12.85312101   1.6975119   -2.503164557
246   2   -10.87657545   -12.85312101   1.6975119   -1.180379747
247   2   -10.87657545   -12.85312101   1.6975119   0.1424050633
248   2   -10.87657545   -12.85312101   1.6975119   1.465189873
249   2   -10.87657545   -12.85312101   3.02029671   -2.503164557
250   2   -10.87657545   -12.85312101   3.02029671   -1.180379747
251   2   -10.87657545   -12.85312101   3.02029671   0.1424050633
252   2   -10.87657545   -12.85312101   3.02029671   1.465189873
253   2   -10.87657545   -12.85312101   4.34308152   -2.503164557
254   2   -10.87657545   -12.85312101   4.34308152   -1.180379747
255   2   -10.87657545   -12.85312101   4.34308152   0.1424050633
256   2   -10.87657545   -12.85312101   4.34308152   1.465189873
257   2   -10.87657545   -12.85312101   5.665866331   -2.503164557
258   2   -10.87657545   -12.85312101   5.665866331   -1.180379747
259   2   -10.87657545   -12.85312101   5.665866331   0.1424050633
260   2   -10.87657545   -12.85312101   5.665866331   1.465189873
261   2   -10.87657545   -12.85312101   6.988651141   -2.503164557
262   2   -10.87657545   -12.85312101   6.988651141   -1.180379747
263   2   -10.87657545   -12.85312101   6.988651141   0.1424050633
264   2   -10.87657545   -12.85312101   6.988651141   1.465189873
265   2   -10.87657545   -12.85312101   8.311435951   -2.503164557
266   2   -10.87657545   -12.85312101   8.311435951   -1.180379747
267   2   -10.87657545   -12.85312101   8.311435951   0.1424050633
268   2   -10.87657545   -12.85312101   8.311435951   1.465189873
269   2   -10.87657545   -12.85312101   9.634220761   -2.503164557
270   2   -10.87657545   -12.85312101   9.634220761   -1.180379747
271   2   -10.87657545   -12.85312101   9.634220761   0.1424050633
272   2   -10.87657545   -12.85312101   9.634220761   1.465189873
273   2   -10.87657545   -12.85312101   10.95700557   -2.503164557
274   2   -10.87657545   -12.85312101   10.95700557   -1.180379747
275   2   -10.87657545   -12.85312101   10.95700557   0.1424050633
276   2   -10.87657545   -12.85312101   10.95700557   1.465189873
277   2   -10.87657545   -12.85312101   12.27979038   -2.503164557
278   2   -10.87657545   -12.85312101   12.27979038   -1.180379747
279   2   -10.87657545   -12.85312101   12.27979038   0.1424050633
280   2   -10.87657545   -12.85312101   12.27979038   1.465189873
281   2   -10.87657545   -12.85312101   13.60257519   -2.503164557
282   2   -10.87657545   -12.85312101   13.60257519   -1.180379747
283   2   -10.87657545   -12.85312101   13.60257519   0.1424050633
284   2   -10.87657545   -12.85312101   13.60257519   1.465189873
285   2   -10.87657545   -12.85312101   14.92536   -2.503164557
286   2   -10.87657545   -12.85312101   14.92536   -1.180379747
287   2   -10.87657545   -12.85312101   14.92536   0.1424050633
288   2   -10.87657545   -12.85312101   14.92536   1.465189873
289   2   -10.87657545   -11.5303362   -15.49869063   -2.503164557
290   2   -10.87657545   -11.5303362   -15.49869063   -1.180379747
291   2   -10.87657545   -11.5303362   -15.49869063   0.1424050633
292   2   -10.87657545   -11.5303362   -15.49869063   1.465189873
293   2   -10.87657545   -11.5303362   -14.17590582   -2.503164557
294   2   -10.87657545   -11.5303362   -14.17590582   -1.180379747
295   2   -10.87657545   -11.5303362   -14.17590582   0.1424050633
296   2   -10.87657545   -11.5303362   -14.17590582   1.465189873
297   2   -10.87657545   -11.5303362   -12.85312101   -2.503164557
298   2   -10.87657545   -11.5303362   -12.85312101   -1.180379747
299   2   -10.87657545   -11.5303362   -12.85312101   0.1424050633
300   2   -10.87657545   -11.5303362   -12.85312101   1.465189873
301   2   -10.87657545   -11.5303362   -11.5303362   -2.503164557
302   2   -10.87657545   -11.5303362   -11.5303362   -1.180379747
303   2   -10.87657545   -11.5303362   -11.5303362   0.1424050633
304   2   -10.87657545   -11.5303362   -11.5303362   1.465189873
305   2   -10.87657545   -11.5303362   -10.20755139   -2.503164557
306   2   -10.87657545   -11.5303362   -10.20755139   -1.180379747
307   2   -10.87657545   -11.5303362   -10.20755139   0.1424050633
308   2   -10.87657545   -11.5303362   -10.20755139   1.465189873
309   2   -10.87657545   -11.5303362   -8.884766581   -2.503164557
310   2   -10.87657545   -11.5303362   -8.884766581   -1.180379747
311   2   -10.87657545   -11.5303362   -8.884766581   0.1424050633
312   2   -10.87657545   -11.5303362   -8.884766581   1.465189873
313   2   -10.87657545   -11.5303362   -7.561981771   -2.503164557
314   2   -10.87657545   -11.5303362   -7.561981771   -1.180379747
315   2   -10.87657545   -11.5303362   -7.561981771   0.1424050633
316   2   -10.87657545   -11.5303362   -7.561981771   1.465189873
317   2   -10.87657545   -11.5303362   -6.239196961   -2.503164557
318   2   -10.87657545   -11.5303362   -6.239196961   -1.180379747
319   2   -10.87657545   -11.5303362   -6.239196961   0.1424050633
320   2   -10.87657545   -11.5303362   -6.239196961   1.465189873
321   2   -10.87657545   -11.5303362   -4.91641215   -2.503164557
322   2   -10.87657545   -11.5303362   -4.91641215   -1.180379747
323   2   -10.87657545   -11.5303362   -4.91641215   0.1424050633
324   2   -10.87657545   -11.5303362   -4.91641215   1.465189873
325   2   -10.87657545   -11.5303362   -3.59362734   -2.503164557
326   2   -10.87657545   -11.5303362   -3.59362734   -1.180379747
327   2   -10.87657545   -11.5303362   -3.59362734   0.1424050633
328   2   -10.87657545   -11.5303362   -3.59362734   1.465189873
329   2   -10.87657545   -11.5303362   -2.27084253   -2.503164557
330   2   -10.87657545   -11.5303362   -2.27084253   -1.180379747
331   2   -10.87657545   -11.5303362   -2.27084253   0.1424050633
332   2   -10.87657545   -11.5303362   -2.27084253   1.465189873
333   2   -10.87657545   -11.5303362   -0.94805772   -2.503164557
334   2   -10.87657545   -11.5303362   -0.94805772   -1.180379747
335   2   -10.87657545   -11.5303362   -0.94805772   0.1424050633
336   2   -10.87657545   -11.5303362   -0.94805772   1.465189873
337   2   -10.87657545   -11.5303362   0.3747270901   -2.503164557
338   2   -10.87657545   -11.5303362   0.3747270901   -1.180379747
339   2   -10.87657545   -11.5303362   0.3747270901   0.1424050633
340   2   -10.87657545   -11.5303362   0.3747270901   1.465189873
341   2   -10.87657545   -11.5303362   1.6975119   -2.503164557
342   2   -10.87657545   -11.5303362   1.6975119   -1.180379747
343   2   -10.87657545   -11.5303362   1.6975119   0.1424050633
344   2   -10.87657545   -11.5303362   1.6975119   1.465189873
345   2   -10.87657545   -11.5303362   3.02029671   -2.503164557
346   2   -10.87657545   -11.5303362   3.02029671   -1.180379747
347   2   -10.87657545   -11.5303362   3.02029671   0.1424050633
348   2   -10.87657545   -11.5303362   3.02029671   1.465189873
349   2   -10.87657545   -11.5303362   4.34308152   -2.503164557
350   2   -10.87657545   -11.5303362   4.34308152   -1.180379747
351   2   -10.87657545   -11.5303362   4.34308152   0.1424050633
352   2   -10.87657545   -11.5303362   4.34308152   1.465189873
353   2   -10.87657545   -11.5303362   5.665866331   -2.503164557
354   2   -10.87657545   -11.5303362   5.665866331   -1.180379747
355   2   -10.87657545   -11.5303362   5.665866331   0.1424050633
356   2   -10.87657545   -11.5303362   5.665866331   1.465189873
357   2   -10.87657545   -11.5303362   6.988651141   -2.503164557
358   2   -10.87657545   -11.5303362   6.988651141   -1.180379747
359   2   -10.87657545   -11.5303362   6.988651141   0.1424050633
360   2   -10.87657545   -11.5303362   6.988651141   1.465189873
361   2   -10.87657545   -11.5303362   8.311435951   -2.503164557
362   2   -10.87657545   -11.5303362   8.311435951   -1.180379747
363   2   -10.87657545   -11.5303362   8.311435951   0.1424050633
364   2   -10.87657545   -11.5303362   8.311435951   1.465189873
365   2   -10.87657545   -11.5303362   9.634220761   -2.503164557
366   2   -10.87657545   -11.5303362   9.634220761   -1.180379747
367   2   -10.87657545   -11.5303362   9.634220761   0.1424050633
368   2   -10.87657545   -11.5303362   9.634220761   1.465189873
369   2   -10.87657545   -11.5303362   10.95700557   -2.503164557
370   2   -10.87657545   -11.5303362   10.95700557   -1.180379747
371   2   -10.87657545   -11.5303362   10.95700557   0.1424050633
372   2   -10.87657545   -11.5303362   10.95700557   1.465189873
373   2   -10.87657545   -11.5303362   12.27979038   -2.503164557
374   2   -10.87657545   -11.5303362   12.27979038   -1.180379747
375   2   -10.87657545   -11.5303362   12.27979038   0.1424050633
376   2   -10.87657545   -11.5303362   12.27979038   1.465189873
377   2   -10.87657545   -11.5303362   13.60257519   -2.503164557
378   2   -10.87657545   -11.5303362   13.60257519   -1.180379747
379   2   -10.87657545   -11.5303362   13.60257519   0.1424050633
380   2   -10.87657545   -11.5303362   13.60257519   1.465189873
381   2   -10.87657545   -11.5303362   14.92536   -2.503164557
382   2   -10.87657545   -11.5303362   14.92536   -1.180379747
383   2   -10.87657545   -11.5303362   14.92536   0.1424050633
384   2   -10.87657545   -11.5303362   14.92536   1.465189873
385   2   -10.87657545   -10.20755139   -15.49869063   -2.503164557
386   2   -10.87657545   -10.20755139   -15.49869063   -1.180379747
387   2   -10.87657545   -10.20755139   -15.49869063   0.1424050633
388   2   -10.87657545   -10.20755139   -15.49869063   1.465189873
389   2   -10.87657545   -10.20755139   -14.17590582   -2.503164557
390   2   -10.87657545   -10.20755139   -14.17590582   -1.180379747
391   2   -10.87657545   -10.20755139   -14.17590582   0.1424050633
392   2   -10.87657545   -10.20755139   -14.17590582   1.465189873
393   2   -10.87657545   -10.20755139   -12.85312101   -2.503164557
394   2   -10.87657545   -10.20755139   -12.85312101   -1.180379747
395   2   -10.87657545   -10.20755139   -12.85312101   0.1424050633
396   2   -10.87657545   -10.20755139   -12.85312101   1.465189873
397   2   -10.87657545   -10.20755139   -11.5303362   -2.503164557
398   2   -10.87657545   -10.20755139   -11.5303362   -1.180379747
399   2   -10.87657545   -10.20755139   -11.5303362   0.1424050633
400   2   -10.87657545   -10.20755139   -11.5303362   1.465189873
401   2   -10.87657545   -10.20755139   -10.20755139   -2.503164557
402   2   -10.87657545   -10.20755139   -10.20755139   -1.180379747
403   2   -10.87657545   -10.20755139   -10.20755139   0.1424050633
404   2   -10.87657545   -10.20755139   -10.20755139   1.465189873
405   2   -10.87657545   -10.20755139   -8.884766581   -2.503164557
406   2   -10.87657545   -10.20755139   -8.884766581   -1.180379747
407   2   -10.87657545   -10.20755139   -8.884766581   0.1424050633
408   2   -10.87657545   -10.20755139   -8.884766581   1.465189873
409   2   -10.87657545   -10.20755139   -7.561981771   -2.503164557
410   2   -10.87657545   -10.20755139   -7.561981771   -1.180379747
411   2   -10.87657545   -10.20755139   -7.561981771   0.1424050633
412   2   -10.87657545   -10.20755139   -7.561981771   1.465189873
413   2   -10.87657545   -10.20755139   -6.239196961   -2.503164557
414   2   -10.87657545   -10.20755139   -6.239196961   -1.180379747
415   2   -10.87657545   -10.20755139   -6.239196961   0.1424050633
416   2   -10.87657545   -10.20755139   -6.239196961   1.465189873
417   2   -10.87657545   -10.20755139   -4.91641215   -2.503164557
418   2   -10.87657545   -10.20755139   -4.91641215   -1.180379747
419   2   -10.87657545   -10.20755139   -4.91641215   0.1424050633
420   2   -10.87657545   -10.20755139   -4.91641215   1.465189873
421   2   -10.87657545   -10.20755139   -3.59362734   -2.503164557
422   2   -10.87657545   -10.20755139   -3.59362734   -1.180379747
423   2   -10.87657545   -10.20755139   -3.59362734   0.1424050633
424   2   -10.87657545   -10.20755139   -3.59362734   1.465189873
