ITEM: TIMESTEP
9999
ITEM: NUMBER OF ATOMS
424
ITEM: BOX BOUNDS
-21.4562	21.4562
-21.4562	21.4562
-4.20168	4.20168
ITEM: ATOMS index type x y z
     0	1	  -19.49	-11.6981	-1.16566
     1	1	 11.2569	 5.02959	 2.38156
     2	1	-10.0122	 17.4475	-0.225696
     3	1	 -16.417	0.966576	0.892435
     4	1	-6.65493	-10.8293	-2.51014
     5	1	0.432087	  16.549	-0.661355
     6	1	-4.11352	 1.99268	-2.95255
     7	1	 -5.5985	-18.1213	-2.08629
     8	1	 5.25258	 10.6132	0.248457
     9	1	-15.9988	 -17.737	  3.0271
    10	1	-11.5408	-6.40125	-2.05329
    11	1	-16.2811	 4.58352	-1.15303
    12	1	-7.37202	 20.6088	-1.01813
    13	1	-2.17672	-14.3341	-0.709952
    14	1	 10.5174	-12.6957	 -1.7861
    15	1	-19.7631	-10.2614	-2.70722
    16	1	-3.54052	-18.2777	-2.85938
    17	1	-6.53307	-17.7521	 3.02862
    18	1	 19.0586	-7.53368	 3.13851
    19	1	-4.90657	 12.7329	 1.21742
    20	1	-7.97343	 3.34789	-1.64363
    21	1	-19.3659	 4.21204	  1.3191
    22	1	 -3.7088	 13.1504	-2.53731
    23	1	-20.5342	-5.18539	-0.739833
    24	1	-7.93327	-5.61193	 2.45709
    25	1	 1.87368	 10.1889	-3.07931
    26	1	 6.63136	 17.2826	 2.81156
    27	1	 6.39586	-13.8842	-0.0790351
    28	1	-21.3506	 12.7449	0.859562
    29	1	-10.2722	-15.7991	-1.39488
    30	1	  4.2077	 15.1586	-2.99395
    31	1	 17.7378	-11.8462	 -2.8328
    32	1	-12.1382	 1.65007	 2.54183
    33	1	-8.62214	-11.0318	0.576927
    34	1	 9.09526	-18.2973	0.582545
    35	1	 6.04247	-8.87618	  1.1703
    36	1	 19.9194	 3.96335	-2.33589
    37	1	-4.06726	-5.54752	 1.41539
    38	1	  18.364	 20.6591	-0.13435
    39	1	-8.88731	-8.57491	-0.358753
    40	1	0.299397	-7.44956	-2.32073
    41	1	-4.92121	 -1.6956	-0.382513
    42	1	 11.3356	-11.0454	 3.14253
    43	1	-15.8043	 19.6583	 2.84135
    44	1	-15.1876	-14.6021	-1.85055
    45	1	-2.81507	 8.39637	-2.34375
    46	1	 16.8239	 5.41379	 -1.6324
    47	1	 10.1051	 14.6001	0.631932
    48	1	 6.48411	-1.62802	 2.03057
    49	1	 8.43548	-4.02058	 2.79021
    50	1	 -7.7921	-20.1428	-0.213786
    51	1	 10.3629	0.448932	 2.40811
    52	1	-2.31428	-18.1427	 2.29099
    53	1	 3.01767	-16.1135	 1.11338
    54	1	-14.0592	 8.64468	-3.06361
    55	1	-1.82006	 4.08488	-2.45798
    56	1	 5.23412	 -20.515	 -3.0222
    57	1	 9.98685	-3.07823	-2.97691
    58	1	 4.28159	-19.8589	-0.270813
    59	1	-18.3626	 16.2529	-1.45272
    60	1	 -1.5642	 -13.253	 -2.6706
    61	1	-15.8549	-2.57106	-0.0565328
    62	1	 12.2883	-15.9696	-2.69037
    63	1	 7.73975	 13.9227	-2.72485
    64	1	 20.3185	 9.63887	-2.46377
    65	1	-18.8045	 5.37094	-3.14819
    66	1	 1.45618	-19.9724	-1.77592
    67	1	 12.7642	 13.3168	-0.186919
    68	1	  2.5129	 9.28779	 2.25258
    69	1	-8.27322	 5.20484	-2.78874
    70	1	-1.82463	-4.20119	0.652371
    71	1	 20.4385	-9.70043	-1.11883
    72	1	-2.80443	 6.33977	0.688749
    73	1	-19.2393	 15.6441	 2.85877
    74	1	 17.6352	 1.60043	 1.44991
    75	1	 19.1777	 19.6264	 1.38105
    76	1	 17.6624	-1.84302	0.681904
    77	1	 8.15783	 1.35634	-1.42026
    78	1	 7.77867	 7.74524	-0.203799
    79	1	 13.1777	 14.5961	-2.63357
    80	1	 14.8154	 14.9362	0.647967
    81	1	-9.21907	 4.62282	-0.062802
    82	1	 1.88545	-1.90813	 2.61222
    83	1	-7.84228	-8.84423	-2.94232
    84	1	 17.0251	-19.2907	 2.75834
    85	1	-0.763627	 14.1355	0.0805638
    86	1	 0.42246	 4.24171	 2.30349
    87	1	 13.5638	 3.69322	 2.66322
    88	1	 14.0091	-2.64161	-1.84578
    89	1	-20.6291	-3.38595	0.442825
    90	1	-5.93326	  1.8953	 2.04596
    91	1	-4.01174	-7.86363	-0.712839
    92	1	-17.7439	-15.9627	 1.61036
    93	1	 -16.306	 -10.084	-2.00666
    94	1	 2.36489	  6.6961	-0.490775
    95	1	 10.0235	 5.57411	-2.12336
    96	1	0.0245927	-17.8738	 3.21285
    97	1	 4.04989	-0.977086	0.763417
    98	1	 6.20348	-20.5446	 1.26781
    99	1	 18.2969	-20.4822	 1.32861
   100	1	-12.0176	-3.91902	-2.50287
   101	1	-17.4454	-4.07116	-2.12638
   102	1	   18.72	-19.2699	 -3.0777
   103	1	 4.91461	-6.03606	-2.24607
   104	1	 15.3491	-5.71167	0.991221
   105	1	 7.42855	 3.53555	-1.18326
   106	1	-6.39523	 1.88093	0.00525392
   107	1	 -10.462	 -17.755	-2.97946
   108	1	-16.6732	 10.8807	-2.59773
   109	1	 17.1705	 2.72129	-2.82509
   110	1	-13.0495	-11.4202	0.833501
   111	1	-14.8907	-9.03516	 2.88318
   112	1	 14.7517	-15.7048	-1.29049
   113	1	-10.3691	 13.3184	 1.37043
   114	1	-13.2288	 1.41304	-2.29096
   115	1	 -16.933	 -20.213	 1.74816
   116	1	-8.11601	-15.4863	0.595239
   117	1	 9.83987	-6.87587	-0.502366
   118	1	-1.60345	-1.34706	-1.81352
   119	1	-10.1329	-0.361623	-0.902711
   120	1	  9.7352	 3.64423	 2.01285
   121	1	 19.0202	 -13.686	-0.909236
   122	1	-8.26401	 10.7695	0.615525
   123	1	 -6.2704	 2.05965	-2.65555
   124	1	 15.9813	-11.5738	-0.312103
   125	1	 2.59198	 6.47168	 2.45306
   126	1	 1.65096	  2.5088	-0.94429
   127	1	 12.2808	-5.96135	 2.44908
   128	1	-12.6173	 5.73512	-1.91633
   129	1	-20.1078	0.0200332	 2.46381
   130	1	 -12.522	 9.65159	-0.606331
   131	1	 20.4041	-11.2411	0.699134
   132	1	 11.9362	 21.2985	0.711519
   133	1	 8.13369	  18.601	-0.745975
   134	1	-1.80822	  18.892	-1.46869
   135	1	  13.053	-9.39571	-2.84732
   136	1	-0.502209	 10.1647	 2.48611
   137	1	-2.12386	  -4.985	-1.23068
   138	1	 -1.4501	-11.3492	 1.34701
   139	1	-13.5273	 12.6484	 2.09975
   140	1	 10.2791	-10.2735	 0.42676
   141	1	0.750174	-4.22908	0.521826
   142	1	 -17.888	 2.18885	-3.17777
   143	1	 1.72271	-8.59099	  2.8372
   144	1	 4.44948	-12.9327	-0.877245
   145	1	 21.1413	-3.23429	 2.88593
   146	1	 10.5421	-5.16845	-2.28996
   147	1	 16.3824	-20.4146	-0.189689
   148	1	 17.4131	 -13.239	 3.08846
   149	1	  12.951	 4.37153	-2.95996
   150	1	-11.9062	-9.43461	 1.74809
   151	1	-3.83533	-10.0678	-0.799067
   152	1	-4.07184	  8.8976	 1.50716
   153	1	-7.36259	-3.36849	 1.73418
   154	1	 15.5651	-4.22116	-2.81498
   155	1	-0.629943	 14.9779	  2.7921
   156	1	-20.0133	 8.05739	  2.8427
   157	1	-4.67463	 16.5283	-0.945101
   158	1	-8.35165	 6.39107	 2.81332
   159	1	  19.864	 13.6548	-0.988501
   160	1	-13.1881	-1.03081	 2.95494
   161	1	-14.2287	 1.18669	  2.1584
   162	1	 21.3582	-16.9163	 2.75623
   163	1	 14.7937	-10.3052	-1.28614
   164	1	 11.1817	-3.03427	-0.882649
   165	1	 4.65247	-12.0755	 3.12734
   166	1	-16.7987	 2.79585	 2.03588
   167	1	 13.7037	 18.7632	-0.458898
   168	1	-19.7989	 19.1151	-0.170562
   169	1	-18.5433	 6.04131	-1.18985
   170	1	-21.3502	0.998736	-1.31354
   171	1	 1.32212	-16.5884	-1.93245
   172	1	  2.0074	 14.3213	 2.96111
   173	1	-11.6215	-17.6519	0.542702
   174	1	-12.6864	 6.97301	 1.65631
   175	1	 -6.8622	-12.6597	 1.39386
   176	1	 5.60763	-16.6094	 -2.8453
   177	1	 13.1859	 9.14223	-1.22691
   178	1	 8.76678	 11.0671	-1.56793
   179	1	-13.8319	-21.2422	0.357558
   180	1	 20.7153	 3.75405	  2.2401
   181	1	 -4.6237	-0.055522	 2.67024
   182	1	 18.5935	 8.42779	-2.80376
   183	1	 5.87483	 -17.503	 3.04042
   184	1	 2.90983	 5.87511	-2.60881
   185	1	 18.2132	 16.4399	  1.4791
   186	1	 15.9058	-7.50568	 -2.7318
   187	1	-2.19929	 1.67537	0.236688
   188	1	-15.1507	 -18.523	 -2.1574
   189	1	-10.4323	 18.0405	-2.98908
   190	1	 11.0867	 18.6451	0.595515
   191	1	0.0582399	-9.35817	-2.73711
   192	1	 2.96863	   2.845	 1.86414
   193	1	-18.9238	-17.0909	-2.64539
   194	1	-13.6656	 3.08193	 3.28104
   195	1	-12.0925	 19.1214	-0.961765
   196	1	-7.74286	-19.3985	  2.3888
   197	1	 4.99701	-12.0092	-2.72781
   198	1	 20.1437	-18.4021	-1.89055
   199	1	 4.61078	 19.3413	0.0601128
   200	1	0.143325	 9.46629	-1.82394
   201	1	 5.08983	-6.57664	0.832032
   202	1	  8.3137	 14.9644	 3.21869
   203	1	0.0287177	 5.82741	-0.452941
   204	1	-16.8227	 14.1708	 1.13021
   205	1	 19.9824	 12.0436	  1.9771
   206	1	-7.21872	-0.535551	-2.17884
   207	1	-20.1888	  19.209	-2.91186
   208	1	-0.413269	 21.0313	0.502196
   209	1	-11.0549	 10.2478	 -2.2475
   210	1	 18.2352	-16.4052	  2.7048
   211	1	-13.5211	 -15.463	0.977936
   212	-1	-5.96859	-18.9391	0.927764
   213	-1	 17.3299	-9.62908	-2.95208
   214	-1	  19.831	-12.9681	 -2.9363
   215	-1	-19.1438	 11.9687	 2.13378
   216	-1	 9.63967	-5.87847	  1.9754
   217	-1	 1.78532	-13.4151	 2.27099
   218	-1	-17.4866	-6.84267	-2.69259
   219	-1	  7.7874	 1.80807	 1.01935
   220	-1	 10.8627	 7.91779	-1.20175
   221	-1	 11.3172	-7.98742	 2.25907
   222	-1	  15.324	-8.51652	-0.112417
   223	-1	  20.606	-4.32026	 1.21232
   224	-1	  9.4723	 3.23281	-1.67503
   225	-1	-18.1558	-6.75961	0.762084
   226	-1	-1.81272	 -11.161	-1.91004
   227	-1	  19.233	-18.3276	 2.20514
   228	-1	-2.15159	 16.2157	-0.962771
   229	-1	0.999754	-13.8756	-2.82985
   230	-1	 -18.329	 -14.736	-1.60589
   231	-1	-16.5821	 16.5609	0.940354
   232	-1	-12.6665	-4.19269	0.820531
   233	-1	-2.43143	 9.69482	 2.82811
   234	-1	 2.17227	-14.9666	-1.03453
   235	-1	-18.9385	-1.39828	  -2.372
   236	-1	 19.3787	-5.20541	-1.73514
   237	-1	-11.9374	-20.4167	0.490862
   238	-1	 8.86232	 16.2107	0.531822
   239	-1	 12.0356	-0.343814	-1.42542
   240	-1	-10.6917	-0.0867132	 2.51445
   241	-1	 4.12095	 7.72936	-2.11568
   242	-1	-7.80981	-17.4051	 -1.2619
   243	-1	-18.9185	-4.31307	0.658266
   244	-1	 16.4431	 -13.226	0.822207
   245	-1	-6.38644	 13.6641	-1.46158
   246	-1	-19.3572	 8.16117	-1.29523
   247	-1	 2.46778	-6.07484	 2.27989
   248	-1	-6.49285	  4.1515	-0.476933
   249	-1	-15.5356	 6.31862	 1.07181
   250	-1	-5.32724	-4.43941	-3.12657
   251	-1	-10.9929	 12.5327	-1.81619
   252	-1	 8.04694	-13.3607	-2.46933
   253	-1	-7.80114	-0.874683	 0.42131
   254	-1	-17.8412	-11.8188	-3.08653
   255	-1	 14.5651	 -21.326	0.819783
   256	-1	 -11.496	 15.8293	-0.631437
   257	-1	 3.45023	 2.74865	-2.58643
   258	-1	-5.22633	-1.98092	 1.46441
   259	-1	 12.6277	 2.85756	-0.472759
   260	-1	-15.0764	 -10.837	-0.484775
   261	-1	-11.4322	-9.39365	-1.25906
   262	-1	-6.25161	 5.68025	-2.63382
   263	-1	-4.03503	-20.1148	-1.56216
   264	-1	-16.9767	 13.0499	-2.53933
   265	-1	  5.7649	-15.0159	  2.5749
   266	-1	 3.40075	-10.1471	-2.89592
   267	-1	-3.25213	-3.62179	-2.82986
   268	-1	 20.0271	 19.4427	-3.04343
   269	-1	-20.1066	-15.6135	-0.219881
   270	-1	 15.7224	 18.9371	0.578078
   271	-1	 -18.533	-10.3204	0.581985
   272	-1	  14.788	-2.99615	  1.3966
   273	-1	 2.54968	-2.29994	-2.52259
   274	-1	 20.7343	 -1.0705	0.0647778
   275	-1	-7.26852	 7.41863	 1.26542
   276	-1	 10.0423	-15.5266	 2.89749
   277	-1	 16.6301	-10.1113	 1.60955
   278	-1	 9.77961	-0.923824	 -2.3513
   279	-1	-13.3571	-7.44371	 2.68311
   280	-1	-0.968795	-15.9459	 2.72551
   281	-1	-13.4516	-20.7995	 2.64115
   282	-1	-9.49232	 -9.1028	 1.76117
   283	-1	 7.48996	-0.742311	-1.45556
   284	-1	-15.9231	 21.0021	-0.864683
   285	-1	 10.1967	-7.23469	-2.73529
   286	-1	  4.0303	 13.1759	 3.10119
   287	-1	-10.7824	-11.1839	-1.53109
   288	-1	 5.76265	-18.3886	0.525032
   289	-1	-0.505018	 2.18191	 2.55728
   290	-1	 -9.8649	 19.4762	  0.1701
   291	-1	 14.0075	 7.21052	 0.11369
   292	-1	 11.9456	-9.80466	 -1.1434
   293	-1	 14.8166	 17.3595	 1.52974
   294	-1	  17.604	 15.0295	-0.158142
   295	-1	-7.57636	 11.6878	 2.64369
   296	-1	 21.3491	-19.0088	0.570011
   297	-1	-15.9655	 17.5082	 2.57514
   298	-1	-4.96753	-15.3271	 -2.3125
   299	-1	-1.67547	-20.3827	-2.68271
   300	-1	-1.03235	 12.7951	 2.51646
   301	-1	0.967102	-17.7374	 1.30755
   302	-1	0.222215	 18.1183	0.894144
   303	-1	-21.1647	-7.75194	-1.78768
   304	-1	  7.5385	-13.0921	 2.95974
   305	-1	-9.08166	-3.36246	-1.38727
   306	-1	-2.34538	-7.09872	0.391242
   307	-1	-1.19232	 14.2171	-2.44083
   308	-1	 -3.4089	-10.7604	-2.95665
   309	-1	 19.8182	  8.2383	 1.24415
   310	-1	-8.94326	 19.6103	-3.13873
   311	-1	-1.03929	-3.20996	-2.91007
   312	-1	 -14.699	 11.1372	-1.81861
   313	-1	 17.6639	 7.34641	 1.31999
   314	-1	-18.7062	-21.1573	 1.41286
   315	-1	-9.63721	-6.31927	-2.78055
   316	-1	-13.1547	 19.7795	-3.19812
   317	-1	-18.7997	 10.3424	-0.625772
   318	-1	-3.85241	-3.43816	-0.588875
   319	-1	 13.3902	-3.63204	  2.9068
   320	-1	 14.6499	 16.1306	-2.24039
   321	-1	 2.09308	 21.3037	-3.08524
   322	-1	 6.11161	-11.3183	 1.06366
   323	-1	-16.9629	-1.61084	 1.51679
   324	-1	  4.8225	-4.15051	 2.20929
   325	-1	0.656723	-12.5996	-1.00853
   326	-1	   2.878	 9.48621	-0.0897114
   327	-1	-17.7336	 5.86804	 2.96693
   328	-1	 11.5445	-16.9723	-0.491202
   329	-1	 16.4011	 12.6349	-1.20631
   330	-1	-9.91766	 1.68455	 -1.0885
   331	-1	 17.7147	-3.92456	0.961624
   332	-1	-13.5645	 4.06607	-2.98553
   333	-1	 12.0647	 11.4336	-2.42215
   334	-1	-0.595526	 7.35813	-2.59829
   335	-1	 8.24656	-19.9709	 2.06322
   336	-1	-7.23286	 10.9689	-1.15409
   337	-1	-19.3236	-19.3707	-1.18906
   338	-1	-15.8868	 1.06114	  -1.321
   339	-1	 5.97339	-8.52895	-2.13921
   340	-1	-4.77773	0.724186	-0.422532
   341	-1	 9.07629	 -3.3709	-0.416621
   342	-1	-6.78677	-13.7479	 3.21706
   343	-1	-13.8695	-5.30518	-1.11922
   344	-1	 5.58779	 13.6087	-0.624924
   345	-1	-16.2036	-15.9101	-0.231476
   346	-1	 13.4037	 -13.054	-2.54399
   347	-1	 9.11942	-11.6553	-3.04189
   348	-1	  -2.124	-16.4786	 -2.1111
   349	-1	-18.7522	 3.64384	-1.12055
   350	-1	-8.13333	-14.8898	-1.27356
   351	-1	-17.9492	 19.8079	-1.30065
   352	-1	 15.0966	-16.2114	 2.38132
   353	-1	 10.3249	 12.6665	-0.856338
   354	-1	-0.425883	-1.81544	  2.8346
   355	-1	 2.77072	 -17.985	 2.97249
   356	-1	 11.7991	  2.0001	 1.83044
   357	-1	 18.6593	 3.42176	0.569725
   358	-1	 8.41087	 17.8928	-2.74238
   359	-1	-10.3508	-13.4737	  1.4742
   360	-1	-8.75847	 1.74936	  -2.709
   361	-1	 9.58541	 5.30794	0.347718
   362	-1	-4.92752	 14.9507	 1.05525
   363	-1	-11.4002	 4.73934	  1.2311
   364	-1	   6.077	-3.67578	-2.66185
   365	-1	 3.27847	-8.70357	-0.961149
   366	-1	-12.1495	 7.75124	 -3.0572
   367	-1	-19.1408	 2.20704	 2.25139
   368	-1	 16.7786	-17.0272	0.814908
   369	-1	-0.461055	 -7.5028	 2.18929
   370	-1	  10.892	-19.7792	-1.62622
   371	-1	0.918507	  1.4589	 1.21409
   372	-1	 1.72351	 4.18097	 0.55451
   373	-1	0.309151	-8.28204	0.139964
   374	-1	-5.46118	-7.35708	0.955016
   375	-1	 10.4615	 17.5167	 3.04772
   376	-1	-13.6727	 7.49496	-0.821019
   377	-1	 17.4073	 10.5899	 2.46594
   378	-1	  16.802	-18.2268	-1.84037
   379	-1	 17.1658	 14.5336	 2.55039
   380	-1	 19.6816	0.100527	 2.06912
   381	-1	 7.56532	-15.8409	-1.95759
   382	-1	-11.6645	-18.9748	 2.35747
   383	-1	-19.8452	 -2.1195	 2.51692
   384	-1	 18.8823	-5.31597	 2.44286
   385	-1	 6.32991	   8.653	-2.20466
   386	-1	 21.3858	 1.65843	 0.86134
   387	-1	 -9.8233	 8.58403	 2.91987
   388	-1	-6.30917	 -8.8702	-0.739208
   389	-1	-0.73041	-3.35868	-0.807817
   390	-1	-11.1145	 15.4987	  1.4259
   391	-1	 -10.507	-6.93228	 2.10732
   392	-1	0.745652	 3.73443	-3.11318
   393	-1	-8.52007	 15.3712	 -2.4722
   394	-1	-12.4667	-14.9192	-2.83206
   395	-1	-15.7135	-4.59813	-3.21462
   396	-1	 17.4049	 10.9141	-0.762819
   397	-1	 6.49185	  2.7244	 2.56883
   398	-1	 13.4299	 16.1179	-0.461947
   399	-1	-19.3369	-11.4754	 2.31396
   400	-1	 6.32456	 9.03147	 1.78259
   401	-1	 7.59053	-5.69687	0.801294
   402	-1	-4.23143	  5.1191	-1.32694
   403	-1	  6.1489	  11.571	-2.37193
   404	-1	 -21.189	-20.6011	 2.92209
   405	-1	-0.676728	-20.3811	 2.49566
   406	-1	 1.87315	 19.9259	0.154305
   407	-1	 20.6283	-16.9993	0.314162
   408	-1	 11.9687	 15.7417	 2.34252
   409	-1	-1.08092	   8.491	 0.42904
   410	-1	-1.94251	 4.20626	-0.177194
   411	-1	-9.26638	 -17.543	0.479084
   412	-1	-2.14543	 17.3262	-3.16572
   413	-1	 4.12456	 16.0375	 1.68427
   414	-1	 9.44569	 20.5174	 3.14098
   415	-1	-8.84318	 3.98951	 2.00727
   416	-1	 -5.3358	-12.9296	-2.20574
   417	-1	-12.5508	 2.87009	0.647672
   418	-1	 -6.5464	-20.5254	-2.65504
   419	-1	 14.2308	-0.577052	0.015339
   420	-1	-0.784288	 1.70036	-1.79078
   421	-1	 7.54713	-21.4063	 -2.7651
   422	-1	0.262766	 6.48474	 2.07094
   423	-1	-17.1549	 14.4228	-1.11558
ITEM: TIMESTEP
19999
ITEM: NUMBER OF ATOMS
424
ITEM: BOX BOUNDS
-21.4562	21.4562
-21.4562	21.4562
-4.20168	4.20168
ITEM: ATOMS index type x y z
     0	1	-17.8363	-16.0421	 2.58529
     1	1	 13.9416	 4.26366	 2.44895
     2	1	-13.1485	 16.7559	 2.33922
     3	1	-20.9811	0.429439	 2.15258
     4	1	-7.06708	-8.05707	-2.60898
     5	1	  5.5809	 13.2653	-1.30622
     6	1	-1.88347	-0.86776	-0.458918
     7	1	-7.22395	-14.6574	-3.10045
     8	1	 11.1357	 13.4013	-0.99156
     9	1	-13.2954	-12.8718	 2.08152
    10	1	-17.5618	-7.12276	 1.06697
    11	1	-14.4648	 5.53654	 1.57464
    12	1	-6.45717	-17.5556	-1.55197
    13	1	-5.92162	-17.1412	0.797517
    14	1	  10.326	-13.2437	-2.98057
    15	1	-20.8508	-10.5308	-2.87855
    16	1	 2.34302	-19.3879	-0.495656
    17	1	-6.90614	-14.8954	 2.74208
    18	1	  13.514	-9.31497	 2.38371
    19	1	 -4.9826	 16.8194	   2.296
    20	1	  -12.33	 2.09257	-2.05218
    21	1	-19.6997	 6.79354	 2.38464
    22	1	-5.05181	 13.2485	 3.14077
    23	1	-19.1296	-6.55595	  3.1526
    24	1	-4.79626	-5.42912	0.919294
    25	1	0.716502	 14.3093	-2.39117
    26	1	 10.7009	 19.7738	 2.64387
    27	1	 10.1581	-9.39379	-0.395963
    28	1	 15.7184	 11.6774	-0.0407619
    29	1	-9.50419	-15.4174	-2.47301
    30	1	 2.26681	-21.4364	-2.67919
    31	1	 18.1638	-18.3186	0.746633
    32	1	-6.18992	-0.626509	-0.834161
    33	1	-11.6781	 -11.087	-2.51899
    34	1	  13.226	-17.9593	-1.53874
    35	1	 6.18824	-11.4453	0.363565
    36	1	  21.013	 6.30981	-2.77704
    37	1	-2.79957	-5.00928	0.152741
    38	1	 16.4482	 19.3732	-2.11357
    39	1	-11.3017	-4.34675	-0.15178
    40	1	-1.81958	-6.92668	-1.48145
    41	1	-1.92416	-2.28125	-3.01009
    42	1	  15.357	 -12.826	 3.21642
    43	1	-18.9649	-19.3072	-0.00768129
    44	1	-17.0588	-11.8321	-0.238939
    45	1	-2.08268	 8.70631	-0.752733
    46	1	 15.6769	 7.21371	-1.84869
    47	1	 10.5737	 16.2732	-0.495592
    48	1	 4.60975	 -9.1642	-3.07372
    49	1	 11.2892	-7.28619	  2.4397
    50	1	-8.50388	 19.6555	 0.99983
    51	1	 13.2628	  3.6499	0.0261073
    52	1	0.669215	 21.2214	0.678109
    53	1	 9.63914	-11.8345	 1.56568
    54	1	-13.8301	 9.62182	 2.58943
    55	1	-0.954954	 2.24509	  -1.303
    56	1	 8.30696	-17.2106	   -3.08
    57	1	 12.0878	-5.51841	 -1.9845
    58	1	 8.00888	 -14.091	0.124145
    59	1	 21.0851	 15.5319	 2.68595
    60	1	 0.69703	-12.8382	-2.52128
    61	1	-21.1838	-1.79448	0.528709
    62	1	 12.0033	-20.0053	-3.10961
    63	1	 7.15132	 15.3099	-2.45282
    64	1	-14.7917	 17.2135	-2.43673
    65	1	-21.4378	 8.05476	0.0935717
    66	1	 5.89073	-16.0699	-0.229251
    67	1	  13.995	 10.5346	 1.15047
    68	1	 8.38187	 13.1108	0.0417066
    69	1	-14.9098	 9.19225	-2.45281
    70	1	 1.05618	-1.50598	 3.02959
    71	1	 -21.394	 -9.1257	 1.46923
    72	1	-6.74991	 10.0106	-0.0354939
    73	1	 20.3313	 21.0939	 2.67943
    74	1	-20.0939	 3.69696	0.800745
    75	1	 13.9051	 17.6534	0.247633
    76	1	 14.7252	-0.963028	 2.11302
    77	1	  8.0956	-4.37408	  1.7433
    78	1	 10.1837	 5.40214	 3.10907
    79	1	 13.0328	 16.1314	-2.03238
    80	1	  16.617	 14.7335	 2.87181
    81	1	-9.20525	  8.2399	-0.359758
    82	1	 2.43175	-0.293994	-1.25275
    83	1	-11.1959	 -6.9246	-2.78639
    84	1	 11.8259	 -15.548	 1.76111
    85	1	-4.66571	 18.6202	-0.836402
    86	1	 1.92559	 5.70211	0.898694
    87	1	 13.0758	 7.47586	 2.83575
    88	1	 12.3295	-0.760313	-2.75148
    89	1	 20.8495	-6.22621	-0.770851
    90	1	-9.79925	 2.77754	 2.55562
    91	1	-3.77979	-7.74341	 1.29778
    92	1	 21.0549	-16.7005	  2.0272
    93	1	-13.8475	-13.1477	-2.21194
    94	1	 5.28099	 9.58552	-0.688523
    95	1	 7.76084	 1.16255	-2.65141
    96	1	  3.5512	-19.8254	 2.97778
    97	1	 8.40071	-1.15622	 1.69665
    98	1	 11.5697	-18.7393	 1.85625
    99	1	-20.9619	 21.3837	-2.48903
   100	1	-14.1561	-4.17754	-2.52008
   101	1	-15.1173	-10.0898	-1.78947
   102	1	 20.6826	 17.5577	-2.60544
   103	1	 11.4469	 1.12846	  1.1941
   104	1	 19.8454	-10.9255	-0.283518
   105	1	 6.29106	 3.54769	 -2.3049
   106	1	-3.56419	 2.44083	 2.99269
   107	1	 -9.6643	 20.0914	-1.41708
   108	1	-17.3453	  15.223	-0.40832
   109	1	 14.2596	0.209505	-2.60372
   110	1	-10.6152	-8.40642	-1.26167
   111	1	-18.9319	-10.8311	 3.08465
   112	1	 21.4225	-19.0441	 1.97358
   113	1	 -15.177	 12.5048	0.729465
   114	1	-9.58815	 1.13369	-0.573328
   115	1	-13.3216	-19.7789	 2.76106
   116	1	-10.6734	-11.6072	 1.42945
   117	1	 11.5899	-8.04891	-0.674663
   118	1	 3.27077	-5.32387	 1.39775
   119	1	-16.8744	-5.63266	-2.72808
   120	1	 7.15853	 2.51034	0.963195
   121	1	 20.5901	-13.1353	 1.69118
   122	1	-8.75003	 10.5726	-0.586891
   123	1	-8.11644	 5.16979	-3.12264
   124	1	 15.3596	 -13.178	-1.98931
   125	1	 8.40311	 8.98857	 1.44806
   126	1	  3.7247	0.718845	-2.80668
   127	1	 13.8756	-4.95385	  2.4236
   128	1	-9.87946	 5.06735	0.375138
   129	1	 19.3066	 -1.4361	0.131744
   130	1	-11.9917	 7.41738	 2.57472
   131	1	 19.0067	-12.1682	 3.10942
   132	1	 8.01248	 19.6323	-3.09163
   133	1	 1.56811	  18.356	-1.16444
   134	1	-1.38884	 16.4396	-2.11344
   135	1	 13.4768	 -7.8897	-2.75312
   136	1	 -3.4727	 12.9527	0.169594
   137	1	-5.91593	-2.46293	-0.206489
   138	1	-5.90603	-10.6394	 2.76382
   139	1	-15.6183	 15.1357	 2.73921
   140	1	  6.9748	-9.95095	 2.65062
   141	1	 6.19168	-5.56791	 2.76859
   142	1	-19.4798	 3.20516	-1.20268
   143	1	-0.640269	-10.8488	-0.650089
   144	1	 5.80247	-13.4513	  -1.866
   145	1	 18.8695	-6.53357	 2.86716
   146	1	 7.05769	-4.55112	 -3.0394
   147	1	 15.9284	 20.3156	0.601624
   148	1	 17.2311	 -10.231	 1.30445
   149	1	 12.7684	 2.56653	 -2.3169
   150	1	-11.8724	-3.64966	 3.02519
   151	1	-8.73642	-10.1244	-2.03531
   152	1	-7.65762	  13.452	-2.97203
   153	1	-9.98316	-1.80219	 1.53651
   154	1	 17.6308	0.119543	-0.502569
   155	1	-2.56315	 18.6146	 2.53561
   156	1	 17.5464	 10.6654	-0.333341
   157	1	-4.85596	 16.0812	 0.12133
   158	1	-9.62896	 12.0322	 2.97384
   159	1	-18.1147	  13.221	0.348702
   160	1	-19.7905	-6.76923	 -2.2403
   161	1	 -16.891	-1.32094	-2.88425
   162	1	 17.7461	-20.7543	 1.62613
   163	1	 20.2082	-6.72119	-3.09202
   164	1	 11.8502	-2.49933	 2.85029
   165	1	 6.63162	-18.1638	 2.06667
   166	1	-21.0424	 3.46949	   2.948
   167	1	 13.5862	 19.9321	0.969724
   168	1	 17.0077	 16.9242	-1.50434
   169	1	-18.0205	  6.6591	-3.19459
   170	1	 19.7993	 0.40648	-1.99543
   171	1	0.825561	-15.7099	 2.60323
   172	1	-0.685569	 15.0012	-0.177408
   173	1	-8.39769	-17.9568	-0.0223382
   174	1	-17.1928	 4.81079	 2.87599
   175	1	-3.95419	-14.1964	-1.42043
   176	1	 12.7447	-15.8442	-2.53467
   177	1	 9.79523	 2.98105	-2.60285
   178	1	 7.50065	 6.89552	 1.76959
   179	1	-19.5491	 16.9843	-2.19119
   180	1	 19.6353	 6.54466	-1.22588
   181	1	-2.10575	0.498416	 1.85862
   182	1	 20.6753	 8.39692	-3.09438
   183	1	 4.78509	 -18.135	0.320923
   184	1	 4.63463	 5.59572	-2.51178
   185	1	 10.2376	 13.4749	 2.42462
   186	1	 15.5492	-2.76629	 1.35573
   187	1	-1.83483	 3.14533	 1.97255
   188	1	-12.9428	 19.6007	-1.24001
   189	1	-7.10161	 16.9468	-1.07878
   190	1	 10.5901	-19.9616	0.142199
   191	1	-0.806395	-14.3152	 1.66752
   192	1	 3.54764	-2.43248	 2.90708
   193	1	 -19.577	-16.8657	0.140746
   194	1	-14.7676	  1.2766	 3.02644
   195	1	-3.47401	 20.7631	-0.987423
   196	1	-19.3482	 21.1069	0.0172264
   197	1	 4.53068	-11.3008	-3.12137
   198	1	 19.4257	-15.0811	-0.476897
   199	1	 5.61504	 21.2464	 1.10203
   200	1	0.417372	 11.6522	 1.04081
   201	1	 2.02684	-6.52732	-1.86796
   202	1	 8.02036	 15.8426	 0.43147
   203	1	-4.76705	 6.07411	-2.29955
   204	1	-18.0916	 15.4467	 3.11341
   205	1	-19.3901	 11.5045	-2.36689
   206	1	-9.02933	-1.68847	-2.64327
   207	1	-18.7334	 18.8351	-1.55405
   208	1	-0.718491	 17.8509	0.731497
   209	1	-11.6606	 17.9473	-0.713272
   210	1	 18.7535	-16.5875	 3.02822
   211	1	-11.2553	-16.5731	-0.128575
   212	-1	-7.89431	  -17.07	 2.75945
   213	-1	 19.0379	-14.5517	 1.68609
   214	-1	-21.1935	-13.1529	-0.0810925
   215	-1	 18.0171	 13.2844	-0.799345
   216	-1	 15.1162	-6.40201	-1.70499
   217	-1	0.694356	-12.9522	  1.2412
   218	-1	-20.9518	-8.72081	-0.745142
   219	-1	 10.3295	 3.46191	  1.1578
   220	-1	 9.72268	 7.79494	-3.10365
   221	-1	 9.78291	-9.42107	 2.79823
   222	-1	 15.3119	-12.6874	 1.13461
   223	-1	 18.8835	-8.29279	0.770468
   224	-1	 9.92258	 1.16719	-1.75096
   225	-1	   -18.3	 -8.4316	-2.43354
   226	-1	-5.45708	-16.8026	 3.09856
   227	-1	 19.1214	-18.5947	 2.97295
   228	-1	-2.98232	 18.0819	0.411387
   229	-1	 10.3736	-16.6823	 2.19971
   230	-1	-16.0457	-14.1615	-1.37031
   231	-1	-20.1468	 18.1812	0.100408
   232	-1	-19.1833	  2.7393	 2.30615
   233	-1	-3.35811	 14.8243	-2.95257
   234	-1	 2.19959	-16.7441	-1.70003
   235	-1	-19.6725	 2.44743	-3.12654
   236	-1	 -21.101	-7.46594	 2.50975
   237	-1	-9.13831	-20.2011	 2.77967
   238	-1	 12.3867	 12.8957	0.936391
   239	-1	 6.49756	 1.86417	 2.95814
   240	-1	  -14.88	-3.21452	 2.02164
   241	-1	 7.44982	 12.3455	 2.34804
   242	-1	-9.85496	-18.4932	-3.01848
   243	-1	-16.0515	-4.84421	 1.76448
   244	-1	 16.1581	 -16.865	 2.09336
   245	-1	 -8.1177	 13.5652	-0.751873
   246	-1	-19.3376	 8.07352	-2.56301
   247	-1	  4.7203	 -15.816	 2.53008
   248	-1	-7.17287	 7.75425	 1.23831
   249	-1	-19.0224	 7.90427	-0.476497
   250	-1	 -2.3225	-4.81527	-3.04121
   251	-1	 -11.277	 9.99081	 3.29868
   252	-1	  10.056	  -20.74	-2.60888
   253	-1	-7.64047	 1.45969	-0.187596
   254	-1	-17.3541	-10.5838	-2.16644
   255	-1	 14.4229	 18.7296	 2.85892
   256	-1	-14.6457	-21.2146	-1.14148
   257	-1	 5.49061	 1.73669	-2.77503
   258	-1	-3.11351	-3.34987	 1.89563
   259	-1	 16.0472	  3.9689	 2.30471
   260	-1	-16.3066	-8.75342	0.924415
   261	-1	  -13.76	-8.76337	-2.60123
   262	-1	-9.89924	  6.0578	-2.15569
   263	-1	-10.4011	 18.1612	 1.37387
   264	-1	 21.4438	  12.463	 2.61168
   265	-1	 2.33182	 20.8696	 2.40392
   266	-1	 1.14967	-9.99093	-2.87705
   267	-1	-4.57117	-9.30562	-1.97935
   268	-1	 15.3678	 14.0202	0.214859
   269	-1	 20.7988	-16.8074	-2.22841
   270	-1	 13.6131	-21.0282	-2.07416
   271	-1	-18.1682	-14.0427	 1.19645
   272	-1	 13.9259	-4.61798	 -3.0416
   273	-1	 6.82683	 1.04335	-0.564506
   274	-1	 18.9893	 2.43265	-2.78377
   275	-1	-11.8442	 8.58236	-1.97636
   276	-1	 13.7882	-11.5049	-2.88019
   277	-1	 15.9821	-7.14424	 2.85478
   278	-1	 16.4926	-0.857588	  -2.873
   279	-1	-14.1463	-6.33863	0.645341
   280	-1	-1.25011	-7.16132	 1.79994
   281	-1	-16.0791	  19.551	  1.8796
   282	-1	-10.9314	-8.05551	 1.09624
   283	-1	 10.3538	-3.44325	-1.75527
   284	-1	-14.1162	-20.3996	-3.02582
   285	-1	 16.4262	-7.68597	-3.05882
   286	-1	 2.06559	 11.7978	-1.13381
   287	-1	-6.52684	-10.4514	-1.99199
   288	-1	 6.02653	-19.9825	-0.383909
   289	-1	-2.20934	 6.62846	 2.72593
   290	-1	-9.80326	 18.1174	-1.68986
   291	-1	 14.6192	 9.75757	 2.86172
   292	-1	 13.6068	-8.18162	0.0146868
   293	-1	 12.0941	  14.063	-3.22025
   294	-1	 21.1591	 15.6192	-2.64377
   295	-1	-7.53736	 14.5153	0.990192
   296	-1	-20.9936	-20.5723	0.556798
   297	-1	-14.6468	 14.6487	0.394105
   298	-1	-2.14721	-17.6776	-2.31321
   299	-1	 3.08325	  16.737	-1.42971
   300	-1	-2.61307	 15.0524	 1.30464
   301	-1	0.102345	-15.9919	0.594595
   302	-1	 2.15489	 18.6581	 1.72483
   303	-1	-19.0506	-10.3994	0.235603
   304	-1	 12.5813	-11.2037	 2.21334
   305	-1	-8.36806	 -4.7066	0.859103
   306	-1	-3.92498	-11.7313	-2.90166
   307	-1	-5.09639	  13.738	-0.393969
   308	-1	-8.55482	 -12.562	-0.605008
   309	-1	 20.3544	 3.11075	 1.56509
   310	-1	 -9.2579	-20.5126	-2.50261
   311	-1	-0.803707	-2.20457	 1.41737
   312	-1	-11.0993	 11.9012	-1.95298
   313	-1	 17.5986	 9.22878	  2.2954
   314	-1	-15.7996	-18.8586	0.462822
   315	-1	-9.57762	  -6.251	-1.07092
   316	-1	-19.8678	-19.7978	 -2.2902
   317	-1	-17.2415	 13.4642	-2.06078
   318	-1	-3.82268	-1.79147	-0.0344211
   319	-1	 11.5078	-4.27028	-0.071835
   320	-1	 19.9667	 15.1401	-0.0096924
   321	-1	 1.98833	-18.5111	-2.93022
   322	-1	  6.5719	-14.8816	 1.81785
   323	-1	-17.0878	-7.72216	-0.843605
   324	-1	 4.06336	-11.2319	 2.88629
   325	-1	-0.922343	   19.98	-0.715604
   326	-1	 4.07157	 14.5161	-2.64503
   327	-1	 21.3876	 9.03875	 2.30486
   328	-1	 14.4317	-16.9079	0.988898
   329	-1	 17.9788	 11.8089	-3.12034
   330	-1	 -7.0891	 5.13376	 1.50069
   331	-1	-20.0415	-3.46652	 2.52258
   332	-1	-17.5631	 4.74583	-2.07353
   333	-1	 13.8827	 14.0841	-1.08406
   334	-1	-1.27523	 4.57156	-2.51877
   335	-1	 12.4597	-16.1475	-0.50461
   336	-1	-3.25757	 8.45552	-2.78735
   337	-1	 18.1051	 18.9144	 1.99603
   338	-1	-14.1137	 1.67626	-2.93435
   339	-1	 8.15551	-10.0009	0.494887
   340	-1	 -4.2569	0.469026	 2.30649
   341	-1	 9.06209	-7.70045	-0.63646
   342	-1	-6.36518	-15.3975	-0.86795
   343	-1	-19.9998	-4.31041	-1.49929
   344	-1	 6.59475	 15.3627	 2.37299
   345	-1	-14.0845	-10.9633	-0.441254
   346	-1	 16.8222	-10.5115	-2.90767
   347	-1	 6.86021	 -10.065	-2.34834
   348	-1	0.034383	 18.1134	-2.68802
   349	-1	-20.5636	 6.09464	-1.15573
   350	-1	-3.81817	-16.0402	-2.35619
   351	-1	-16.9028	 20.0392	-2.37901
   352	-1	 17.4155	 -14.222	 3.12232
   353	-1	  7.3222	 18.2445	-1.62942
   354	-1	 3.18502	-2.08849	0.528922
   355	-1	 6.56479	 20.7259	 2.86381
   356	-1	  9.6709	 5.30851	0.247992
   357	-1	 16.6386	  5.4358	-0.519339
   358	-1	 4.57102	 15.5167	0.034609
   359	-1	 -8.7663	-13.2479	-2.80844
   360	-1	-11.2819	-0.149583	 -1.5234
   361	-1	 13.4915	 7.75144	-2.93881
   362	-1	-7.01895	  16.773	 1.85715
   363	-1	-12.5095	 1.26004	-0.0261038
   364	-1	 9.76574	-9.43654	-2.62252
   365	-1	 3.74164	-4.22105	-2.06649
   366	-1	-11.6065	  8.5533	0.632991
   367	-1	-20.0284	0.403997	-0.507711
   368	-1	   17.34	-17.6864	-2.58126
   369	-1	 5.39448	-9.17445	-0.641415
   370	-1	 10.9259	 20.6782	-0.437939
   371	-1	 2.55369	 3.32236	 2.01503
   372	-1	 4.17593	 7.46236	 1.33755
   373	-1	-0.756218	 -9.0569	-2.57307
   374	-1	-8.80082	 1.04516	-2.57829
   375	-1	 10.3846	  10.715	0.695862
   376	-1	 -17.227	 7.08596	 1.15386
   377	-1	 16.9046	 12.1298	  3.0587
   378	-1	 16.0951	-20.4825	-0.670287
   379	-1	 12.2518	 9.68019	 2.75154
   380	-1	 16.8957	0.885235	 3.01005
   381	-1	  15.176	-17.8079	-1.00208
   382	-1	-12.3262	-10.1436	-0.427323
   383	-1	 18.5284	-2.16338	 2.66459
   384	-1	  16.314	-5.51741	 1.29839