ITEM: TIMESTEP
0
ITEM: NUMBER OF ATOMS
2500
ITEM: BOX BOUNDS
-16.1601	16.1601
-16.1601	16.1601
-3.16456	3.16456
ITEM: ATOMS index type x y z
1  1  -15.6601  -15.6601  -3.66456
2  1  -15.0137  -15.6601  -3.66456
3  1  -14.3673  -15.6601  -3.66456
4  1  -13.7209  -15.6601  -3.66456
5  1  -13.0745  -15.6601  -3.66456
6  1  -12.4281  -15.6601  -3.66456
7  1  -11.7817  -15.6601  -3.66456
8  1  -11.1353  -15.6601  -3.66456
9  1  -10.4889  -15.6601  -3.66456
10  1  -9.84245  -15.6601  -3.66456
11  1  -9.19605  -15.6601  -3.66456
12  1  -8.54965  -15.6601  -3.66456
13  1  -7.90324  -15.6601  -3.66456
14  1  -7.25684  -15.6601  -3.66456
15  1  -6.61044  -15.6601  -3.66456
16  1  -5.96403  -15.6601  -3.66456
17  1  -5.31763  -15.6601  -3.66456
18  1  -4.67123  -15.6601  -3.66456
19  1  -4.02482  -15.6601  -3.66456
20  1  -3.37842  -15.6601  -3.66456
21  1  -2.73202  -15.6601  -3.66456
22  1  -2.08561  -15.6601  -3.66456
23  1  -1.43921  -15.6601  -3.66456
24  1  -0.792807  -15.6601  -3.66456
25  1  -0.146403  -15.6601  -3.66456
26  1  0.5  -15.6601  -3.66456
27  1  1.1464  -15.6601  -3.66456
28  1  1.79281  -15.6601  -3.66456
29  1  2.43921  -15.6601  -3.66456
30  1  3.08561  -15.6601  -3.66456
31  1  3.73202  -15.6601  -3.66456
32  1  4.37842  -15.6601  -3.66456
33  1  5.02482  -15.6601  -3.66456
34  1  5.67123  -15.6601  -3.66456
35  1  6.31763  -15.6601  -3.66456
36  1  6.96403  -15.6601  -3.66456
37  1  7.61044  -15.6601  -3.66456
38  1  8.25684  -15.6601  -3.66456
39  1  8.90324  -15.6601  -3.66456
40  1  9.54965  -15.6601  -3.66456
41  1  10.196  -15.6601  -3.66456
42  1  10.8425  -15.6601  -3.66456
43  1  11.4889  -15.6601  -3.66456
44  1  12.1353  -15.6601  -3.66456
45  1  12.7817  -15.6601  -3.66456
46  1  13.4281  -15.6601  -3.66456
47  1  14.0745  -15.6601  -3.66456
48  1  14.7209  -15.6601  -3.66456
49  1  15.3673  -15.6601  -3.66456
50  1  16.0137  -15.6601  -3.66456
51  1  -15.6601  -15.0137  -3.66456
52  1  -15.0137  -15.0137  -3.66456
53  1  -14.3673  -15.0137  -3.66456
54  1  -13.7209  -15.0137  -3.66456
55  1  -13.0745  -15.0137  -3.66456
56  1  -12.4281  -15.0137  -3.66456
57  1  -11.7817  -15.0137  -3.66456
58  1  -11.1353  -15.0137  -3.66456
59  1  -10.4889  -15.0137  -3.66456
60  1  -9.84245  -15.0137  -3.66456
61  1  -9.19605  -15.0137  -3.66456
62  1  -8.54965  -15.0137  -3.66456
63  1  -7.90324  -15.0137  -3.66456
64  1  -7.25684  -15.0137  -3.66456
65  1  -6.61044  -15.0137  -3.66456
66  1  -5.96403  -15.0137  -3.66456
67  1  -5.31763  -15.0137  -3.66456
68  1  -4.67123  -15.0137  -3.66456
69  1  -4.02482  -15.0137  -3.66456
70  1  -3.37842  -15.0137  -3.66456
71  1  -2.73202  -15.0137  -3.66456
72  1  -2.08561  -15.0137  -3.66456
73  1  -1.43921  -15.0137  -3.66456
74  1  -0.792807  -15.0137  -3.66456
75  1  -0.146403  -15.0137  -3.66456
76  1  0.5  -15.0137  -3.66456
77  1  1.1464  -15.0137  -3.66456
78  1  1.79281  -15.0137  -3.66456
79  1  2.43921  -15.0137  -3.66456
80  1  3.08561  -15.0137  -3.66456
81  1  3.73202  -15.0137  -3.66456
82  1  4.37842  -15.0137  -3.66456
83  1  5.02482  -15.0137  -3.66456
84  1  5.67123  -15.0137  -3.66456
85  1  6.31763  -15.0137  -3.66456
86  1  6.96403  -15.0137  -3.66456
87  1  7.61044  -15.0137  -3.66456
88  1  8.25684  -15.0137  -3.66456
89  1  8.90324  -15.0137  -3.66456
90  1  9.54965  -15.0137  -3.66456
91  1  10.196  -15.0137  -3.66456
92  1  10.8425  -15.0137  -3.66456
93  1  11.4889  -15.0137  -3.66456
94  1  12.1353  -15.0137  -3.66456
95  1  12.7817  -15.0137  -3.66456
96  1  13.4281  -15.0137  -3.66456
97  1  14.0745  -15.0137  -3.66456
98  1  14.7209  -15.0137  -3.66456
99  1  15.3673  -15.0137  -3.66456
100  1  16.0137  -15.0137  -3.66456
101  1  -15.6601  -14.3673  -3.66456
102  1  -15.0137  -14.3673  -3.66456
103  1  -14.3673  -14.3673  -3.66456
104  1  -13.7209  -14.3673  -3.66456
105  1  -13.0745  -14.3673  -3.66456
106  1  -12.4281  -14.3673  -3.66456
107  1  -11.7817  -14.3673  -3.66456
108  1  -11.1353  -14.3673  -3.66456
109  1  -10.4889  -14.3673  -3.66456
110  1  -9.84245  -14.3673  -3.66456
111  1  -9.19605  -14.3673  -3.66456
112  1  -8.54965  -14.3673  -3.66456
113  1  -7.90324  -14.3673  -3.66456
114  1  -7.25684  -14.3673  -3.66456
115  1  -6.61044  -14.3673  -3.66456
116  1  -5.96403  -14.3673  -3.66456
117  1  -5.31763  -14.3673  -3.66456
118  1  -4.67123  -14.3673  -3.66456
119  1  -4.02482  -14.3673  -3.66456
120  1  -3.37842  -14.3673  -3.66456
121  1  -2.73202  -14.3673  -3.66456
122  1  -2.08561  -14.3673  -3.66456
123  1  -1.43921  -14.3673  -3.66456
124  1  -0.792807  -14.3673  -3.66456
125  1  -0.146403  -14.3673  -3.66456
126  1  0.5  -14.3673  -3.66456
127  1  1.1464  -14.3673  -3.66456
128  1  1.79281  -14.3673  -3.66456
129  1  2.43921  -14.3673  -3.66456
130  1  3.08561  -14.3673  -3.66456
131  1  3.73202  -14.3673  -3.66456
132  1  4.37842  -14.3673  -3.66456
133  1  5.02482  -14.3673  -3.66456
134  1  5.67123  -14.3673  -3.66456
135  1  6.31763  -14.3673  -3.66456
136  1  6.96403  -14.3673  -3.66456
137  1  7.61044  -14.3673  -3.66456
138  1  8.25684  -14.3673  -3.66456
139  1  8.90324  -14.3673  -3.66456
140  1  9.54965  -14.3673  -3.66456
141  1  10.196  -14.3673  -3.66456
142  1  10.8425  -14.3673  -3.66456
143  1  11.4889  -14.3673  -3.66456
144  1  12.1353  -14.3673  -3.66456
145  1  12.7817  -14.3673  -3.66456
146  1  13.4281  -14.3673  -3.66456
147  1  14.0745  -14.3673  -3.66456
148  1  14.7209  -14.3673  -3.66456
149  1  15.3673  -14.3673  -3.66456
150  1  16.0137  -14.3673  -3.66456
151  1  -15.6601  -13.7209  -3.66456
152  1  -15.0137  -13.7209  -3.66456
153  1  -14.3673  -13.7209  -3.66456
154  1  -13.7209  -13.7209  -3.66456
155  1  -13.0745  -13.7209  -3.66456
156  1  -12.4281  -13.7209  -3.66456
157  1  -11.7817  -13.7209  -3.66456
158  1  -11.1353  -13.7209  -3.66456
159  1  -10.4889  -13.7209  -3.66456
160  1  -9.84245  -13.7209  -3.66456
161  1  -9.19605  -13.7209  -3.66456
162  1  -8.54965  -13.7209  -3.66456
163  1  -7.90324  -13.7209  -3.66456
164  1  -7.25684  -13.7209  -3.66456
165  1  -6.61044  -13.7209  -3.66456
166  1  -5.96403  -13.7209  -3.66456
167  1  -5.31763  -13.7209  -3.66456
168  1  -4.67123  -13.7209  -3.66456
169  1  -4.02482  -13.7209  -3.66456
170  1  -3.37842  -13.7209  -3.66456
171  1  -2.73202  -13.7209  -3.66456
172  1  -2.08561  -13.7209  -3.66456
173  1  -1.43921  -13.7209  -3.66456
174  1  -0.792807  -13.7209  -3.66456
175  1  -0.146403  -13.7209  -3.66456
176  1  0.5  -13.7209  -3.66456
177  1  1.1464  -13.7209  -3.66456
178  1  1.79281  -13.7209  -3.66456
179  1  2.43921  -13.7209  -3.66456
180  1  3.08561  -13.7209  -3.66456
181  1  3.73202  -13.7209  -3.66456
182  1  4.37842  -13.7209  -3.66456
183  1  5.02482  -13.7209  -3.66456
184  1  5.67123  -13.7209  -3.66456
185  1  6.31763  -13.7209  -3.66456
186  1  6.96403  -13.7209  -3.66456
187  1  7.61044  -13.7209  -3.66456
188  1  8.25684  -13.7209  -3.66456
189  1  8.90324  -13.7209  -3.66456
190  1  9.54965  -13.7209  -3.66456
191  1  10.196  -13.7209  -3.66456
192  1  10.8425  -13.7209  -3.66456
193  1  11.4889  -13.7209  -3.66456
194  1  12.1353  -13.7209  -3.66456
195  1  12.7817  -13.7209  -3.66456
196  1  13.4281  -13.7209  -3.66456
197  1  14.0745  -13.7209  -3.66456
198  1  14.7209  -13.7209  -3.66456
199  1  15.3673  -13.7209  -3.66456
200  1  16.0137  -13.7209  -3.66456
201  1  -15.6601  -13.0745  -3.66456
202  1  -15.0137  -13.0745  -3.66456
203  1  -14.3673  -13.0745  -3.66456
204  1  -13.7209  -13.0745  -3.66456
205  1  -13.0745  -13.0745  -3.66456
206  1  -12.4281  -13.0745  -3.66456
207  1  -11.7817  -13.0745  -3.66456
208  1  -11.1353  -13.0745  -3.66456
209  1  -10.4889  -13.0745  -3.66456
210  1  -9.84245  -13.0745  -3.66456
211  1  -9.19605  -13.0745  -3.66456
212  1  -8.54965  -13.0745  -3.66456
213  1  -7.90324  -13.0745  -3.66456
214  1  -7.25684  -13.0745  -3.66456
215  1  -6.61044  -13.0745  -3.66456
216  1  -5.96403  -13.0745  -3.66456
217  1  -5.31763  -13.0745  -3.66456
218  1  -4.67123  -13.0745  -3.66456
219  1  -4.02482  -13.0745  -3.66456
220  1  -3.37842  -13.0745  -3.66456
221  1  -2.73202  -13.0745  -3.66456
222  1  -2.08561  -13.0745  -3.66456
223  1  -1.43921  -13.0745  -3.66456
224  1  -0.792807  -13.0745  -3.66456
225  1  -0.146403  -13.0745  -3.66456
226  1  0.5  -13.0745  -3.66456
227  1  1.1464  -13.0745  -3.66456
228  1  1.79281  -13.0745  -3.66456
229  1  2.43921  -13.0745  -3.66456
230  1  3.08561  -13.0745  -3.66456
231  1  3.73202  -13.0745  -3.66456
232  1  4.37842  -13.0745  -3.66456
233  1  5.02482  -13.0745  -3.66456
234  1  5.67123  -13.0745  -3.66456
235  1  6.31763  -13.0745  -3.66456
236  1  6.96403  -13.0745  -3.66456
237  1  7.61044  -13.0745  -3.66456
238  1  8.25684  -13.0745  -3.66456
239  1  8.90324  -13.0745  -3.66456
240  1  9.54965  -13.0745  -3.66456
241  1  10.196  -13.0745  -3.66456
242  1  10.8425  -13.0745  -3.66456
243  1  11.4889  -13.0745  -3.66456
244  1  12.1353  -13.0745  -3.66456
245  1  12.7817  -13.0745  -3.66456
246  1  13.4281  -13.0745  -3.66456
247  1  14.0745  -13.0745  -3.66456
248  1  14.7209  -13.0745  -3.66456
249  1  15.3673  -13.0745  -3.66456
250  1  16.0137  -13.0745  -3.66456
251  1  -15.6601  -12.4281  -3.66456
252  1  -15.0137  -12.4281  -3.66456
253  1  -14.3673  -12.4281  -3.66456
254  1  -13.7209  -12.4281  -3.66456
255  1  -13.0745  -12.4281  -3.66456
256  1  -12.4281  -12.4281  -3.66456
257  1  -11.7817  -12.4281  -3.66456
258  1  -11.1353  -12.4281  -3.66456
259  1  -10.4889  -12.4281  -3.66456
260  1  -9.84245  -12.4281  -3.66456
261  1  -9.19605  -12.4281  -3.66456
262  1  -8.54965  -12.4281  -3.66456
263  1  -7.90324  -12.4281  -3.66456
264  1  -7.25684  -12.4281  -3.66456
265  1  -6.61044  -12.4281  -3.66456
266  1  -5.96403  -12.4281  -3.66456
267  1  -5.31763  -12.4281  -3.66456
268  1  -4.67123  -12.4281  -3.66456
269  1  -4.02482  -12.4281  -3.66456
270  1  -3.37842  -12.4281  -3.66456
271  1  -2.73202  -12.4281  -3.66456
272  1  -2.08561  -12.4281  -3.66456
273  1  -1.43921  -12.4281  -3.66456
274  1  -0.792807  -12.4281  -3.66456
275  1  -0.146403  -12.4281  -3.66456
276  1  0.5  -12.4281  -3.66456
277  1  1.1464  -12.4281  -3.66456
278  1  1.79281  -12.4281  -3.66456
279  1  2.43921  -12.4281  -3.66456
280  1  3.08561  -12.4281  -3.66456
281  1  3.73202  -12.4281  -3.66456
282  1  4.37842  -12.4281  -3.66456
283  1  5.02482  -12.4281  -3.66456
284  1  5.67123  -12.4281  -3.66456
285  1  6.31763  -12.4281  -3.66456
286  1  6.96403  -12.4281  -3.66456
287  1  7.61044  -12.4281  -3.66456
288  1  8.25684  -12.4281  -3.66456
289  1  8.90324  -12.4281  -3.66456
290  1  9.54965  -12.4281  -3.66456
291  1  10.196  -12.4281  -3.66456
292  1  10.8425  -12.4281  -3.66456
293  1  11.4889  -12.4281  -3.66456
294  1  12.1353  -12.4281  -3.66456
295  1  12.7817  -12.4281  -3.66456
296  1  13.4281  -12.4281  -3.66456
297  1  14.0745  -12.4281  -3.66456
298  1  14.7209  -12.4281  -3.66456
299  1  15.3673  -12.4281  -3.66456
300  1  16.0137  -12.4281  -3.66456
301  1  -15.6601  -11.7817  -3.66456
302  1  -15.0137  -11.7817  -3.66456
303  1  -14.3673  -11.7817  -3.66456
304  1  -13.7209  -11.7817  -3.66456
305  1  -13.0745  -11.7817  -3.66456
306  1  -12.4281  -11.7817  -3.66456
307  1  -11.7817  -11.7817  -3.66456
308  1  -11.1353  -11.7817  -3.66456
309  1  -10.4889  -11.7817  -3.66456
310  1  -9.84245  -11.7817  -3.66456
311  1  -9.19605  -11.7817  -3.66456
312  1  -8.54965  -11.7817  -3.66456
313  1  -7.90324  -11.7817  -3.66456
314  1  -7.25684  -11.7817  -3.66456
315  1  -6.61044  -11.7817  -3.66456
316  1  -5.96403  -11.7817  -3.66456
317  1  -5.31763  -11.7817  -3.66456
318  1  -4.67123  -11.7817  -3.66456
319  1  -4.02482  -11.7817  -3.66456
320  1  -3.37842  -11.7817  -3.66456
321  1  -2.73202  -11.7817  -3.66456
322  1  -2.08561  -11.7817  -3.66456
323  1  -1.43921  -11.7817  -3.66456
324  1  -0.792807  -11.7817  -3.66456
325  1  -0.146403  -11.7817  -3.66456
326  1  0.5  -11.7817  -3.66456
327  1  1.1464  -11.7817  -3.66456
328  1  1.79281  -11.7817  -3.66456
329  1  2.43921  -11.7817  -3.66456
330  1  3.08561  -11.7817  -3.66456
331  1  3.73202  -11.7817  -3.66456
332  1  4.37842  -11.7817  -3.66456
333  1  5.02482  -11.7817  -3.66456
334  1  5.67123  -11.7817  -3.66456
335  1  6.31763  -11.7817  -3.66456
336  1  6.96403  -11.7817  -3.66456
337  1  7.61044  -11.7817  -3.66456
338  1  8.25684  -11.7817  -3.66456
339  1  8.90324  -11.7817  -3.66456
340  1  9.54965  -11.7817  -3.66456
341  1  10.196  -11.7817  -3.66456
342  1  10.8425  -11.7817  -3.66456
343  1  11.4889  -11.7817  -3.66456
344  1  12.1353  -11.7817  -3.66456
345  1  12.7817  -11.7817  -3.66456
346  1  13.4281  -11.7817  -3.66456
347  1  14.0745  -11.7817  -3.66456
348  1  14.7209  -11.7817  -3.66456
349  1  15.3673  -11.7817  -3.66456
350  1  16.0137  -11.7817  -3.66456
351  1  -15.6601  -11.1353  -3.66456
352  1  -15.0137  -11.1353  -3.66456
353  1  -14.3673  -11.1353  -3.66456
354  1  -13.7209  -11.1353  -3.66456
355  1  -13.0745  -11.1353  -3.66456
356  1  -12.4281  -11.1353  -3.66456
357  1  -11.7817  -11.1353  -3.66456
358  1  -11.1353  -11.1353  -3.66456
359  1  -10.4889  -11.1353  -3.66456
360  1  -9.84245  -11.1353  -3.66456
361  1  -9.19605  -11.1353  -3.66456
362  1  -8.54965  -11.1353  -3.66456
363  1  -7.90324  -11.1353  -3.66456
364  1  -7.25684  -11.1353  -3.66456
365  1  -6.61044  -11.1353  -3.66456
366  1  -5.96403  -11.1353  -3.66456
367  1  -5.31763  -11.1353  -3.66456
368  1  -4.67123  -11.1353  -3.66456
369  1  -4.02482  -11.1353  -3.66456
370  1  -3.37842  -11.1353  -3.66456
371  1  -2.73202  -11.1353  -3.66456
372  1  -2.08561  -11.1353  -3.66456
373  1  -1.43921  -11.1353  -3.66456
374  1  -0.792807  -11.1353  -3.66456
375  1  -0.146403  -11.1353  -3.66456
376  1  0.5  -11.1353  -3.66456
377  1  1.1464  -11.1353  -3.66456
378  1  1.79281  -11.1353  -3.66456
379  1  2.43921  -11.1353  -3.66456
380  1  3.08561  -11.1353  -3.66456
381  1  3.73202  -11.1353  -3.66456
382  1  4.37842  -11.1353  -3.66456
383  1  5.02482  -11.1353  -3.66456
384  1  5.67123  -11.1353  -3.66456
385  1  6.31763  -11.1353  -3.66456
386  1  6.96403  -11.1353  -3.66456
387  1  7.61044  -11.1353  -3.66456
388  1  8.25684  -11.1353  -3.66456
389  1  8.90324  -11.1353  -3.66456
390  1  9.54965  -11.1353  -3.66456
391  1  10.196  -11.1353  -3.66456
392  1  10.8425  -11.1353  -3.66456
393  1  11.4889  -11.1353  -3.66456
394  1  12.1353  -11.1353  -3.66456
395  1  12.7817  -11.1353  -3.66456
396  1  13.4281  -11.1353  -3.66456
397  1  14.0745  -11.1353  -3.66456
398  1  14.7209  -11.1353  -3.66456
399  1  15.3673  -11.1353  -3.66456
400  1  16.0137  -11.1353  -3.66456
401  1  -15.6601  -10.4889  -3.66456
402  1  -15.0137  -10.4889  -3.66456
403  1  -14.3673  -10.4889  -3.66456
404  1  -13.7209  -10.4889  -3.66456
405  1  -13.0745  -10.4889  -3.66456
406  1  -12.4281  -10.4889  -3.66456
407  1  -11.7817  -10.4889  -3.66456
408  1  -11.1353  -10.4889  -3.66456
409  1  -10.4889  -10.4889  -3.66456
410  1  -9.84245  -10.4889  -3.66456
411  1  -9.19605  -10.4889  -3.66456
412  1  -8.54965  -10.4889  -3.66456
413  1  -7.90324  -10.4889  -3.66456
414  1  -7.25684  -10.4889  -3.66456
415  1  -6.61044  -10.4889  -3.66456
416  1  -5.96403  -10.4889  -3.66456
417  1  -5.31763  -10.4889  -3.66456
418  1  -4.67123  -10.4889  -3.66456
419  1  -4.02482  -10.4889  -3.66456
420  1  -3.37842  -10.4889  -3.66456
421  1  -2.73202  -10.4889  -3.66456
422  1  -2.08561  -10.4889  -3.66456
423  1  -1.43921  -10.4889  -3.66456
424  1  -0.792807  -10.4889  -3.66456
425  1  -0.146403  -10.4889  -3.66456
426  1  0.5  -10.4889  -3.66456
427  1  1.1464  -10.4889  -3.66456
428  1  1.79281  -10.4889  -3.66456
429  1  2.43921  -10.4889  -3.66456
430  1  3.08561  -10.4889  -3.66456
431  1  3.73202  -10.4889  -3.66456
432  1  4.37842  -10.4889  -3.66456
433  1  5.02482  -10.4889  -3.66456
434  1  5.67123  -10.4889  -3.66456
435  1  6.31763  -10.4889  -3.66456
436  1  6.96403  -10.4889  -3.66456
437  1  7.61044  -10.4889  -3.66456
438  1  8.25684  -10.4889  -3.66456
439  1  8.90324  -10.4889  -3.66456
440  1  9.54965  -10.4889  -3.66456
441  1  10.196  -10.4889  -3.66456
442  1  10.8425  -10.4889  -3.66456
443  1  11.4889  -10.4889  -3.66456
444  1  12.1353  -10.4889  -3.66456
445  1  12.7817  -10.4889  -3.66456
446  1  13.4281  -10.4889  -3.66456
447  1  14.0745  -10.4889  -3.66456
448  1  14.7209  -10.4889  -3.66456
449  1  15.3673  -10.4889  -3.66456
450  1  16.0137  -10.4889  -3.66456
451  1  -15.6601  -9.84245  -3.66456
452  1  -15.0137  -9.84245  -3.66456
453  1  -14.3673  -9.84245  -3.66456
454  1  -13.7209  -9.84245  -3.66456
455  1  -13.0745  -9.84245  -3.66456
456  1  -12.4281  -9.84245  -3.66456
457  1  -11.7817  -9.84245  -3.66456
458  1  -11.1353  -9.84245  -3.66456
459  1  -10.4889  -9.84245  -3.66456
460  1  -9.84245  -9.84245  -3.66456
461  1  -9.19605  -9.84245  -3.66456
462  1  -8.54965  -9.84245  -3.66456
463  1  -7.90324  -9.84245  -3.66456
464  1  -7.25684  -9.84245  -3.66456
465  1  -6.61044  -9.84245  -3.66456
466  1  -5.96403  -9.84245  -3.66456
467  1  -5.31763  -9.84245  -3.66456
468  1  -4.67123  -9.84245  -3.66456
469  1  -4.02482  -9.84245  -3.66456
470  1  -3.37842  -9.84245  -3.66456
471  1  -2.73202  -9.84245  -3.66456
472  1  -2.08561  -9.84245  -3.66456
473  1  -1.43921  -9.84245  -3.66456
474  1  -0.792807  -9.84245  -3.66456
475  1  -0.146403  -9.84245  -3.66456
476  1  0.5  -9.84245  -3.66456
477  1  1.1464  -9.84245  -3.66456
478  1  1.79281  -9.84245  -3.66456
479  1  2.43921  -9.84245  -3.66456
480  1  3.08561  -9.84245  -3.66456
481  1  3.73202  -9.84245  -3.66456
482  1  4.37842  -9.84245  -3.66456
483  1  5.02482  -9.84245  -3.66456
484  1  5.67123  -9.84245  -3.66456
485  1  6.31763  -9.84245  -3.66456
486  1  6.96403  -9.84245  -3.66456
487  1  7.61044  -9.84245  -3.66456
488  1  8.25684  -9.84245  -3.66456
489  1  8.90324  -9.84245  -3.66456
490  1  9.54965  -9.84245  -3.66456
491  1  10.196  -9.84245  -3.66456
492  1  10.8425  -9.84245  -3.66456
493  1  11.4889  -9.84245  -3.66456
494  1  12.1353  -9.84245  -3.66456
495  1  12.7817  -9.84245  -3.66456
496  1  13.4281  -9.84245  -3.66456
497  1  14.0745  -9.84245  -3.66456
498  1  14.7209  -9.84245  -3.66456
499  1  15.3673  -9.84245  -3.66456
500  1  16.0137  -9.84245  -3.66456
501  1  -15.6601  -9.19605  -3.66456
502  1  -15.0137  -9.19605  -3.66456
503  1  -14.3673  -9.19605  -3.66456
504  1  -13.7209  -9.19605  -3.66456
505  1  -13.0745  -9.19605  -3.66456
506  1  -12.4281  -9.19605  -3.66456
507  1  -11.7817  -9.19605  -3.66456
508  1  -11.1353  -9.19605  -3.66456
509  1  -10.4889  -9.19605  -3.66456
510  1  -9.84245  -9.19605  -3.66456
511  1  -9.19605  -9.19605  -3.66456
512  1  -8.54965  -9.19605  -3.66456
513  1  -7.90324  -9.19605  -3.66456
514  1  -7.25684  -9.19605  -3.66456
515  1  -6.61044  -9.19605  -3.66456
516  1  -5.96403  -9.19605  -3.66456
517  1  -5.31763  -9.19605  -3.66456
518  1  -4.67123  -9.19605  -3.66456
519  1  -4.02482  -9.19605  -3.66456
520  1  -3.37842  -9.19605  -3.66456
521  1  -2.73202  -9.19605  -3.66456
522  1  -2.08561  -9.19605  -3.66456
523  1  -1.43921  -9.19605  -3.66456
524  1  -0.792807  -9.19605  -3.66456
525  1  -0.146403  -9.19605  -3.66456
526  1  0.5  -9.19605  -3.66456
527  1  1.1464  -9.19605  -3.66456
528  1  1.79281  -9.19605  -3.66456
529  1  2.43921  -9.19605  -3.66456
530  1  3.08561  -9.19605  -3.66456
531  1  3.73202  -9.19605  -3.66456
532  1  4.37842  -9.19605  -3.66456
533  1  5.02482  -9.19605  -3.66456
534  1  5.67123  -9.19605  -3.66456
535  1  6.31763  -9.19605  -3.66456
536  1  6.96403  -9.19605  -3.66456
537  1  7.61044  -9.19605  -3.66456
538  1  8.25684  -9.19605  -3.66456
539  1  8.90324  -9.19605  -3.66456
540  1  9.54965  -9.19605  -3.66456
541  1  10.196  -9.19605  -3.66456
542  1  10.8425  -9.19605  -3.66456
543  1  11.4889  -9.19605  -3.66456
544  1  12.1353  -9.19605  -3.66456
545  1  12.7817  -9.19605  -3.66456
546  1  13.4281  -9.19605  -3.66456
547  1  14.0745  -9.19605  -3.66456
548  1  14.7209  -9.19605  -3.66456
549  1  15.3673  -9.19605  -3.66456
550  1  16.0137  -9.19605  -3.66456
551  1  -15.6601  -8.54965  -3.66456
552  1  -15.0137  -8.54965  -3.66456
553  1  -14.3673  -8.54965  -3.66456
554  1  -13.7209  -8.54965  -3.66456
555  1  -13.0745  -8.54965  -3.66456
556  1  -12.4281  -8.54965  -3.66456
557  1  -11.7817  -8.54965  -3.66456
558  1  -11.1353  -8.54965  -3.66456
559  1  -10.4889  -8.54965  -3.66456
560  1  -9.84245  -8.54965  -3.66456
561  1  -9.19605  -8.54965  -3.66456
562  1  -8.54965  -8.54965  -3.66456
563  1  -7.90324  -8.54965  -3.66456
564  1  -7.25684  -8.54965  -3.66456
565  1  -6.61044  -8.54965  -3.66456
566  1  -5.96403  -8.54965  -3.66456
567  1  -5.31763  -8.54965  -3.66456
568  1  -4.67123  -8.54965  -3.66456
569  1  -4.02482  -8.54965  -3.66456
570  1  -3.37842  -8.54965  -3.66456
571  1  -2.73202  -8.54965  -3.66456
572  1  -2.08561  -8.54965  -3.66456
573  1  -1.43921  -8.54965  -3.66456
574  1  -0.792807  -8.54965  -3.66456
575  1  -0.146403  -8.54965  -3.66456
576  1  0.5  -8.54965  -3.66456
577  1  1.1464  -8.54965  -3.66456
578  1  1.79281  -8.54965  -3.66456
579  1  2.43921  -8.54965  -3.66456
580  1  3.08561  -8.54965  -3.66456
581  1  3.73202  -8.54965  -3.66456
582  1  4.37842  -8.54965  -3.66456
583  1  5.02482  -8.54965  -3.66456
584  1  5.67123  -8.54965  -3.66456
585  1  6.31763  -8.54965  -3.66456
586  1  6.96403  -8.54965  -3.66456
587  1  7.61044  -8.54965  -3.66456
588  1  8.25684  -8.54965  -3.66456
589  1  8.90324  -8.54965  -3.66456
590  1  9.54965  -8.54965  -3.66456
591  1  10.196  -8.54965  -3.66456
592  1  10.8425  -8.54965  -3.66456
593  1  11.4889  -8.54965  -3.66456
594  1  12.1353  -8.54965  -3.66456
595  1  12.7817  -8.54965  -3.66456
596  1  13.4281  -8.54965  -3.66456
597  1  14.0745  -8.54965  -3.66456
598  1  14.7209  -8.54965  -3.66456
599  1  15.3673  -8.54965  -3.66456
600  1  16.0137  -8.54965  -3.66456
601  1  -15.6601  -7.90324  -3.66456
602  1  -15.0137  -7.90324  -3.66456
603  1  -14.3673  -7.90324  -3.66456
604  1  -13.7209  -7.90324  -3.66456
605  1  -13.0745  -7.90324  -3.66456
606  1  -12.4281  -7.90324  -3.66456
607  1  -11.7817  -7.90324  -3.66456
608  1  -11.1353  -7.90324  -3.66456
609  1  -10.4889  -7.90324  -3.66456
610  1  -9.84245  -7.90324  -3.66456
611  1  -9.19605  -7.90324  -3.66456
612  1  -8.54965  -7.90324  -3.66456
613  1  -7.90324  -7.90324  -3.66456
614  1  -7.25684  -7.90324  -3.66456
615  1  -6.61044  -7.90324  -3.66456
616  1  -5.96403  -7.90324  -3.66456
617  1  -5.31763  -7.90324  -3.66456
618  1  -4.67123  -7.90324  -3.66456
619  1  -4.02482  -7.90324  -3.66456
620  1  -3.37842  -7.90324  -3.66456
621  1  -2.73202  -7.90324  -3.66456
622  1  -2.08561  -7.90324  -3.66456
623  1  -1.43921  -7.90324  -3.66456
624  1  -0.792807  -7.90324  -3.66456
625  1  -0.146403  -7.90324  -3.66456
626  1  0.5  -7.90324  -3.66456
627  1  1.1464  -7.90324  -3.66456
628  1  1.79281  -7.90324  -3.66456
629  1  2.43921  -7.90324  -3.66456
630  1  3.08561  -7.90324  -3.66456
631  1  3.73202  -7.90324  -3.66456
632  1  4.37842  -7.90324  -3.66456
633  1  5.02482  -7.90324  -3.66456
634  1  5.67123  -7.90324  -3.66456
635  1  6.31763  -7.90324  -3.66456
636  1  6.96403  -7.90324  -3.66456
637  1  7.61044  -7.90324  -3.66456
638  1  8.25684  -7.90324  -3.66456
639  1  8.90324  -7.90324  -3.66456
640  1  9.54965  -7.90324  -3.66456
641  1  10.196  -7.90324  -3.66456
642  1  10.8425  -7.90324  -3.66456
643  1  11.4889  -7.90324  -3.66456
644  1  12.1353  -7.90324  -3.66456
645  1  12.7817  -7.90324  -3.66456
646  1  13.4281  -7.90324  -3.66456
647  1  14.0745  -7.90324  -3.66456
648  1  14.7209  -7.90324  -3.66456
649  1  15.3673  -7.90324  -3.66456
650  1  16.0137  -7.90324  -3.66456
651  1  -15.6601  -7.25684  -3.66456
652  1  -15.0137  -7.25684  -3.66456
653  1  -14.3673  -7.25684  -3.66456
654  1  -13.7209  -7.25684  -3.66456
655  1  -13.0745  -7.25684  -3.66456
656  1  -12.4281  -7.25684  -3.66456
657  1  -11.7817  -7.25684  -3.66456
658  1  -11.1353  -7.25684  -3.66456
659  1  -10.4889  -7.25684  -3.66456
660  1  -9.84245  -7.25684  -3.66456
661  1  -9.19605  -7.25684  -3.66456
662  1  -8.54965  -7.25684  -3.66456
663  1  -7.90324  -7.25684  -3.66456
664  1  -7.25684  -7.25684  -3.66456
665  1  -6.61044  -7.25684  -3.66456
666  1  -5.96403  -7.25684  -3.66456
667  1  -5.31763  -7.25684  -3.66456
668  1  -4.67123  -7.25684  -3.66456
669  1  -4.02482  -7.25684  -3.66456
670  1  -3.37842  -7.25684  -3.66456
671  1  -2.73202  -7.25684  -3.66456
672  1  -2.08561  -7.25684  -3.66456
673  1  -1.43921  -7.25684  -3.66456
674  1  -0.792807  -7.25684  -3.66456
675  1  -0.146403  -7.25684  -3.66456
676  1  0.5  -7.25684  -3.66456
677  1  1.1464  -7.25684  -3.66456
678  1  1.79281  -7.25684  -3.66456
679  1  2.43921  -7.25684  -3.66456
680  1  3.08561  -7.25684  -3.66456
681  1  3.73202  -7.25684  -3.66456
682  1  4.37842  -7.25684  -3.66456
683  1  5.02482  -7.25684  -3.66456
684  1  5.67123  -7.25684  -3.66456
685  1  6.31763  -7.25684  -3.66456
686  1  6.96403  -7.25684  -3.66456
687  1  7.61044  -7.25684  -3.66456
688  1  8.25684  -7.25684  -3.66456
689  1  8.90324  -7.25684  -3.66456
690  1  9.54965  -7.25684  -3.66456
691  1  10.196  -7.25684  -3.66456
692  1  10.8425  -7.25684  -3.66456
693  1  11.4889  -7.25684  -3.66456
694  1  12.1353  -7.25684  -3.66456
695  1  12.7817  -7.25684  -3.66456
696  1  13.4281  -7.25684  -3.66456
697  1  14.0745  -7.25684  -3.66456
698  1  14.7209  -7.25684  -3.66456
699  1  15.3673  -7.25684  -3.66456
700  1  16.0137  -7.25684  -3.66456
701  1  -15.6601  -6.61044  -3.66456
702  1  -15.0137  -6.61044  -3.66456
703  1  -14.3673  -6.61044  -3.66456
704  1  -13.7209  -6.61044  -3.66456
705  1  -13.0745  -6.61044  -3.66456
706  1  -12.4281  -6.61044  -3.66456
707  1  -11.7817  -6.61044  -3.66456
708  1  -11.1353  -6.61044  -3.66456
709  1  -10.4889  -6.61044  -3.66456
710  1  -9.84245  -6.61044  -3.66456
711  1  -9.19605  -6.61044  -3.66456
712  1  -8.54965  -6.61044  -3.66456
713  1  -7.90324  -6.61044  -3.66456
714  1  -7.25684  -6.61044  -3.66456
715  1  -6.61044  -6.61044  -3.66456
716  1  -5.96403  -6.61044  -3.66456
717  1  -5.31763  -6.61044  -3.66456
718  1  -4.67123  -6.61044  -3.66456
719  1  -4.02482  -6.61044  -3.66456
720  1  -3.37842  -6.61044  -3.66456
721  1  -2.73202  -6.61044  -3.66456
722  1  -2.08561  -6.61044  -3.66456
723  1  -1.43921  -6.61044  -3.66456
724  1  -0.792807  -6.61044  -3.66456
725  1  -0.146403  -6.61044  -3.66456
726  1  0.5  -6.61044  -3.66456
727  1  1.1464  -6.61044  -3.66456
728  1  1.79281  -6.61044  -3.66456
729  1  2.43921  -6.61044  -3.66456
730  1  3.08561  -6.61044  -3.66456
731  1  3.73202  -6.61044  -3.66456
732  1  4.37842  -6.61044  -3.66456
733  1  5.02482  -6.61044  -3.66456
734  1  5.67123  -6.61044  -3.66456
735  1  6.31763  -6.61044  -3.66456
736  1  6.96403  -6.61044  -3.66456
737  1  7.61044  -6.61044  -3.66456
738  1  8.25684  -6.61044  -3.66456
739  1  8.90324  -6.61044  -3.66456
740  1  9.54965  -6.61044  -3.66456
741  1  10.196  -6.61044  -3.66456
742  1  10.8425  -6.61044  -3.66456
743  1  11.4889  -6.61044  -3.66456
744  1  12.1353  -6.61044  -3.66456
745  1  12.7817  -6.61044  -3.66456
746  1  13.4281  -6.61044  -3.66456
747  1  14.0745  -6.61044  -3.66456
748  1  14.7209  -6.61044  -3.66456
749  1  15.3673  -6.61044  -3.66456
750  1  16.0137  -6.61044  -3.66456
751  1  -15.6601  -5.96403  -3.66456
752  1  -15.0137  -5.96403  -3.66456
753  1  -14.3673  -5.96403  -3.66456
754  1  -13.7209  -5.96403  -3.66456
755  1  -13.0745  -5.96403  -3.66456
756  1  -12.4281  -5.96403  -3.66456
757  1  -11.7817  -5.96403  -3.66456
758  1  -11.1353  -5.96403  -3.66456
759  1  -10.4889  -5.96403  -3.66456
760  1  -9.84245  -5.96403  -3.66456
761  1  -9.19605  -5.96403  -3.66456
762  1  -8.54965  -5.96403  -3.66456
763  1  -7.90324  -5.96403  -3.66456
764  1  -7.25684  -5.96403  -3.66456
765  1  -6.61044  -5.96403  -3.66456
766  1  -5.96403  -5.96403  -3.66456
767  1  -5.31763  -5.96403  -3.66456
768  1  -4.67123  -5.96403  -3.66456
769  1  -4.02482  -5.96403  -3.66456
770  1  -3.37842  -5.96403  -3.66456
771  1  -2.73202  -5.96403  -3.66456
772  1  -2.08561  -5.96403  -3.66456
773  1  -1.43921  -5.96403  -3.66456
774  1  -0.792807  -5.96403  -3.66456
775  1  -0.146403  -5.96403  -3.66456
776  1  0.5  -5.96403  -3.66456
777  1  1.1464  -5.96403  -3.66456
778  1  1.79281  -5.96403  -3.66456
779  1  2.43921  -5.96403  -3.66456
780  1  3.08561  -5.96403  -3.66456
781  1  3.73202  -5.96403  -3.66456
782  1  4.37842  -5.96403  -3.66456
783  1  5.02482  -5.96403  -3.66456
784  1  5.67123  -5.96403  -3.66456
785  1  6.31763  -5.96403  -3.66456
786  1  6.96403  -5.96403  -3.66456
787  1  7.61044  -5.96403  -3.66456
788  1  8.25684  -5.96403  -3.66456
789  1  8.90324  -5.96403  -3.66456
790  1  9.54965  -5.96403  -3.66456
791  1  10.196  -5.96403  -3.66456
792  1  10.8425  -5.96403  -3.66456
793  1  11.4889  -5.96403  -3.66456
794  1  12.1353  -5.96403  -3.66456
795  1  12.7817  -5.96403  -3.66456
796  1  13.4281  -5.96403  -3.66456
797  1  14.0745  -5.96403  -3.66456
798  1  14.7209  -5.96403  -3.66456
799  1  15.3673  -5.96403  -3.66456
800  1  16.0137  -5.96403  -3.66456
801  1  -15.6601  -5.31763  -3.66456
802  1  -15.0137  -5.31763  -3.66456
803  1  -14.3673  -5.31763  -3.66456
804  1  -13.7209  -5.31763  -3.66456
805  1  -13.0745  -5.31763  -3.66456
806  1  -12.4281  -5.31763  -3.66456
807  1  -11.7817  -5.31763  -3.66456
808  1  -11.1353  -5.31763  -3.66456
809  1  -10.4889  -5.31763  -3.66456
810  1  -9.84245  -5.31763  -3.66456
811  1  -9.19605  -5.31763  -3.66456
812  1  -8.54965  -5.31763  -3.66456
813  1  -7.90324  -5.31763  -3.66456
814  1  -7.25684  -5.31763  -3.66456
815  1  -6.61044  -5.31763  -3.66456
816  1  -5.96403  -5.31763  -3.66456
817  1  -5.31763  -5.31763  -3.66456
818  1  -4.67123  -5.31763  -3.66456
819  1  -4.02482  -5.31763  -3.66456
820  1  -3.37842  -5.31763  -3.66456
821  1  -2.73202  -5.31763  -3.66456
822  1  -2.08561  -5.31763  -3.66456